reset_timestep 0

# reset the temp_profile, to produce a new data file
fix temp_profile all ave/chunk 10 100 1000 chunkID temp file ${step}.T_profile_${dir}.dat
fix temp_profile all ave/chunk 10 100 1000 chunkID temp file s02_compute_kappa.T_profile_${dir}.dat
fix temp_profile all ave/chunk 10 100 1000 chunkID temp file s02_compute_kappa.T_profile_z.dat

# compute difference in T between central and external layer
variable T_diff equal f_temp_profile[${middleval}][3]-f_temp_profile[1][3]
variable T_diff equal f_temp_profile[11][3]-f_temp_profile[1][3]

# reset fix thermal/conductivity to zero energy accumulation
# fix transf_ek_pC paraffinC thermal/conductivity ${freq} ${dir} ${lnum} swap 1
# fix transf_ek_pH paraffinH thermal/conductivity ${freq} ${dir} ${lnum} swap 1
# fix transf_ek_gC grapheneC thermal/conductivity ${freq} ${dir} ${lnum} swap 1
#variable tot_transf_ek equal f_transf_ek_pC+f_transf_ek_pH+f_transf_ek_gC
fix transf_ek CC thermal/conductivity ${freq} ${dir} ${lnum} swap 3
fix transf_ek CC thermal/conductivity 200 ${dir} ${lnum} swap 3
fix transf_ek CC thermal/conductivity 200 z ${lnum} swap 3
fix transf_ek CC thermal/conductivity 200 z 20 swap 3

fix aveTdiff all ave/time 1 1 1000 v_T_diff ave running

# thermo_style custom step time temp etotal f_transf_ek_pC f_transf_ek_pH f_transf_ek_gC v_tot_transf_ek v_T_diff f_aveTdiff v_Lb v_area
thermo_style custom step time temp etotal f_transf_ek v_T_diff f_aveTdiff v_Lb v_area

run $(v_ns_for_k/0.001/v_dt)
run 3000000
PPPM initialization ...
  using 12-bit tables for long-range coulomb (src/kspace.cpp:342)
  G vector (1/distance) = 0.27690352
  grid = 24 24 24
  stencil order = 5
  estimated absolute RMS force accuracy = 9.0591945e-05
  estimated relative force accuracy = 6.2912624e-06
  using double precision FFTW3
  3d grid and FFT values/proc = 3757 1152
WARNING: Using a manybody potential with bonds/angles/dihedrals and special_bond exclusions (src/pair.cpp:242)
Hybrid pair style last /omp style lj/cut/coul/long
Last active /omp style is kspace_style pppm/omp
WARNING: Inconsistent image flags (src/domain.cpp:815)
Per MPI rank memory allocation (min/avg/max) = 17.78 | 18.16 | 18.55 Mbytes
   Step          Time           Temp          TotEng      f_transf_ek      v_T_diff      f_aveTdiff        v_Lb          v_area    
         0   0              446.01874     -18276.63       0              0              0              49.052585      2436.8114    
      1000   1              450.83522     -18278.228      3.5849079      169.58098      84.790491      49.052585      2436.8114    
      2000   2              450.3685      -18273.537      7.4631586      178.29206      115.95768      49.052585      2436.8114    
      3000   3              444.38061     -18284.039      11.097508      175.14989      130.75573      49.052585      2436.8114    
      4000   4              454.0665      -18266.402      14.772937      162.34414      137.07342      49.052585      2436.8114    
      5000   5              448.25848     -18279.68       18.131591      166.7809       142.02466      49.052585      2436.8114    
      6000   6              449.62834     -18284.961      22.00117       174.71087      146.69412      49.052585      2436.8114    
      7000   7              446.44429     -18283.136      25.734141      176.41185      150.40884      49.052585      2436.8114    
      8000   8              452.02347     -18275.798      29.557028      186.44308      154.41264      49.052585      2436.8114    
      9000   9              452.71355     -18266.951      33.179759      194.8783       158.45921      49.052585      2436.8114    
     10000   10             450.46201     -18278.318      36.832463      185.84719      160.94902      49.052585      2436.8114    
     11000   11             452.6432      -18268.432      40.361161      193.43962      163.65657      49.052585      2436.8114    
     12000   12             451.15306     -18283.519      44.263412      183.57644      165.18887      49.052585      2436.8114    
     13000   13             449.92743     -18275.912      47.934958      175.0587       165.89386      49.052585      2436.8114    
     14000   14             453.46112     -18276.799      51.638301      167.25488      165.98459      49.052585      2436.8114    
     15000   15             453.53171     -18271.583      55.261685      161.0989       165.67924      49.052585      2436.8114    
     16000   16             450.86469     -18279.559      59.192978      159.60749      165.32208      49.052585      2436.8114    
     17000   17             447.36737     -18273.822      62.882979      159.43828      164.9952       49.052585      2436.8114    
     18000   18             444.06359     -18278.69       66.852756      166.85345      165.093        49.052585      2436.8114    
     19000   19             453.03256     -18269.364      70.841347      156.62015      164.66936      49.052585      2436.8114    
     20000   20             453.53176     -18271.844      74.626946      171.12149      164.9766       49.052585      2436.8114    
     21000   21             449.26099     -18283.395      78.678917      162.90143      164.88228      49.052585      2436.8114    
     22000   22             454.03043     -18284.369      82.207286      171.45542      165.16807      49.052585      2436.8114    
     23000   23             452.41524     -18269.001      86.113426      155.55413      164.76749      49.052585      2436.8114    
     24000   24             449.85768     -18283.458      89.716776      166.21151      164.82525      49.052585      2436.8114    
     25000   25             446.54379     -18293.621      93.322494      184.29982      165.57427      49.052585      2436.8114    
     26000   26             451.48597     -18279.25       96.891031      176.71503      165.98689      49.052585      2436.8114    
     27000   27             452.77645     -18267.958      100.42831      171.64367      166.18892      49.052585      2436.8114    
     28000   28             452.92304     -18267.962      104.04644      163.23703      166.08713      49.052585      2436.8114    
     29000   29             452.07817     -18275.938      108.1482       166.61678      166.10478      49.052585      2436.8114    
     30000   30             449.27639     -18270.3        111.35969      159.94863      165.9062       49.052585      2436.8114    
     31000   31             452.04094     -18272.185      114.99364      157.64154      165.64793      49.052585      2436.8114    
     32000   32             445.9647      -18282.639      118.56504      157.25782      165.39368      49.052585      2436.8114    
     33000   33             451.12122     -18271.957      122.3937       160.78855      165.25824      49.052585      2436.8114    
     34000   34             446.84094     -18278.611      126.0044       157.8757       165.04731      49.052585      2436.8114    
     35000   35             447.24407     -18281.245      129.7742       158.43571      164.86365      49.052585      2436.8114    
     36000   36             451.1107      -18279.258      133.64338      159.91269      164.72984      49.052585      2436.8114    
     37000   37             448.52288     -18284.689      137.37986      157.79414      164.54732      49.052585      2436.8114    
     38000   38             451.71323     -18273.55       141.35633      163.27412      164.51468      49.052585      2436.8114    
     39000   39             451.51887     -18281.44       145.03381      166.75078      164.57058      49.052585      2436.8114    
     40000   40             450.74577     -18273.902      148.83098      165.07401      164.58286      49.052585      2436.8114    
     41000   41             447.54134     -18285.231      152.36573      148.14936      164.19158      49.052585      2436.8114    
     42000   42             452.95166     -18274.674      155.89339      151.62436      163.89932      49.052585      2436.8114    
     43000   43             447.7741      -18288.982      159.67697      147.9246       163.53626      49.052585      2436.8114    
     44000   44             447.24404     -18277.619      163.58433      161.37134      163.48815      49.052585      2436.8114    
     45000   45             449.99704     -18265.659      167.05785      162.19051      163.45994      49.052585      2436.8114    
     46000   46             447.70088     -18282.951      170.75793      164.42144      163.4804       49.052585      2436.8114    
     47000   47             450.39187     -18267.827      174.43565      153.26145      163.2675       49.052585      2436.8114    
     48000   48             447.71438     -18276.988      178.07867      152.72229      163.0523       49.052585      2436.8114    
     49000   49             459.45875     -18260.311      181.76528      163.49713      163.06119      49.052585      2436.8114    
     50000   50             449.04855     -18280.266      185.36059      166.4501       163.12764      49.052585      2436.8114    
     51000   51             448.68235     -18272.711      188.83759      167.25064      163.20693      49.052585      2436.8114    
     52000   52             448.53066     -18276.657      192.19583      163.41827      163.21092      49.052585      2436.8114    
     53000   53             455.66407     -18266.735      195.97865      170.44587      163.3449       49.052585      2436.8114    
     54000   54             449.62019     -18268.624      199.39542      169.65629      163.45965      49.052585      2436.8114    
     55000   55             442.42665     -18287.212      203.09052      163.2448       163.45581      49.052585      2436.8114    
     56000   56             447.7396      -18272.44       206.98834      152.84882      163.26973      49.052585      2436.8114    
     57000   57             447.20997     -18285.742      210.54324      166.98963      163.33386      49.052585      2436.8114    
     58000   58             453.49334     -18268.295      214.26209      163.23055      163.33211      49.052585      2436.8114    
     59000   59             446.54007     -18284.145      217.82566      170.86218      163.45761      49.052585      2436.8114    
     60000   60             449.90009     -18275.135      221.55514      170.53773      163.57368      49.052585      2436.8114    
     61000   61             444.06182     -18287.236      225.1668       172.73874      163.7215       49.052585      2436.8114    
     62000   62             451.7492      -18270.368      228.80933      170.77272      163.83343      49.052585      2436.8114    
     63000   63             452.52851     -18272.983      232.52852      162.12551      163.80674      49.052585      2436.8114    
     64000   64             449.86167     -18271.933      236.33776      164.81294      163.82222      49.052585      2436.8114    
     65000   65             453.76627     -18282.157      239.97379      172.26539      163.95015      49.052585      2436.8114    
     66000   66             444.4348      -18287.631      243.65348      175.71919      164.12581      49.052585      2436.8114    
     67000   67             453.40944     -18263.403      247.04227      166.0094       164.15351      49.052585      2436.8114    
     68000   68             448.86469     -18275.421      250.70573      169.5074       164.2311       49.052585      2436.8114    
     69000   69             449.09866     -18277.56       253.98126      168.23562      164.28831      49.052585      2436.8114    
     70000   70             448.33717     -18274.5        257.69853      171.12752      164.38463      49.052585      2436.8114    
     71000   71             451.92595     -18280.732      261.32846      158.68538      164.30548      49.052585      2436.8114    
     72000   72             446.20908     -18275.694      265.17631      172.87515      164.42287      49.052585      2436.8114    
     73000   73             446.40037     -18280.007      268.77005      168.0382       164.47173      49.052585      2436.8114    
     74000   74             453.06632     -18265.02       272.45177      152.29362      164.30935      49.052585      2436.8114    
     75000   75             446.14276     -18278.525      276.0757       148.0916       164.09596      49.052585      2436.8114    
     76000   76             449.60408     -18278.939      279.65082      149.21579      163.90271      49.052585      2436.8114    
     77000   77             453.10705     -18270.821      283.78625      157.42889      163.81971      49.052585      2436.8114    
     78000   78             453.63426     -18269.02       287.74864      163.26077      163.81264      49.052585      2436.8114    
     79000   79             450.45943     -18277.348      291.64949      161.95801      163.78945      49.052585      2436.8114    
     80000   80             451.93885     -18282.756      295.24167      163.76437      163.78915      49.052585      2436.8114    
     81000   81             453.21995     -18266.213      298.91741      158.09827      163.71974      49.052585      2436.8114    
     82000   82             447.65988     -18278.906      302.57829      154.42403      163.60775      49.052585      2436.8114    
     83000   83             458.0121      -18266.484      306.15014      148.15195      163.42375      49.052585      2436.8114    
     84000   84             453.19504     -18276.4        310.23956      142.38133      163.17619      49.052585      2436.8114    
     85000   85             452.7984      -18276.539      313.94707      154.61171      163.07661      49.052585      2436.8114    
     86000   86             455.35929     -18264.389      317.7171       142.75808      162.84306      49.052585      2436.8114    
     87000   87             445.24126     -18279.058      321.14976      154.15947      162.74438      49.052585      2436.8114    
     88000   88             454.00352     -18267.413      324.98797      156.56075      162.6749       49.052585      2436.8114    
     89000   89             450.73321     -18277.712      328.86997      152.02906      162.55662      49.052585      2436.8114    
     90000   90             449.80584     -18276.528      332.46044      158.81722      162.51552      49.052585      2436.8114    
     91000   91             443.75117     -18292.813      336.3201       157.08043      162.45645      49.052585      2436.8114    
     92000   92             459.81284     -18261.964      339.92582      160.53055      162.43574      49.052585      2436.8114    
     93000   93             452.34921     -18275.025      343.45879      159.89562      162.40872      49.052585      2436.8114    
     94000   94             450.03514     -18281.321      347.10197      161.35741      162.39765      49.052585      2436.8114    
     95000   95             453.76132     -18262.485      350.61126      152.22474      162.29168      49.052585      2436.8114    
     96000   96             451.09961     -18273.195      354.20317      145.66778      162.1203       49.052585      2436.8114    
     97000   97             454.89256     -18277.065      357.94217      166.87796      162.16885      49.052585      2436.8114    
     98000   98             447.42921     -18276.862      361.35495      161.21268      162.15919      49.052585      2436.8114    
     99000   99             455.21998     -18269.176      364.90977      140.78761      161.94547      49.052585      2436.8114    
    100000   100            451.63519     -18280.085      368.37743      155.94916      161.8861       49.052585      2436.8114    
    101000   101            450.91341     -18271.361      371.80443      146.24659      161.73278      49.052585      2436.8114    
    102000   102            453.25143     -18267.305      375.16805      151.04872      161.62905      49.052585      2436.8114    
    103000   103            445.3592      -18284.955      378.7489       161.85747      161.63124      49.052585      2436.8114    
    104000   104            456.28033     -18268.049      382.48138      165.32026      161.66638      49.052585      2436.8114    
    105000   105            450.39374     -18276.831      385.86743      167.2381       161.71894      49.052585      2436.8114    
    106000   106            447.94823     -18287.056      389.49752      159.58837      161.69903      49.052585      2436.8114    
    107000   107            451.81799     -18272.848      393.14439      157.68147      161.66183      49.052585      2436.8114    
    108000   108            451.49419     -18277.593      396.82625      168.62312      161.72569      49.052585      2436.8114    
    109000   109            445.81188     -18286.446      400.24564      173.87235      161.83612      49.052585      2436.8114    
    110000   110            449.37639     -18274.192      403.80041      157.36554      161.79584      49.052585      2436.8114    
    111000   111            446.28363     -18289.332      407.17727      162.78066      161.80464      49.052585      2436.8114    
    112000   112            447.35094     -18277.454      410.84555      158.51165      161.77549      49.052585      2436.8114    
    113000   113            443.9158      -18291.626      414.30743      166.07         161.81317      49.052585      2436.8114    
    114000   114            450.10809     -18274.313      418.0768       162.41588      161.81841      49.052585      2436.8114    
    115000   115            447.98287     -18278.709      421.49672      175.06018      161.93256      49.052585      2436.8114    
    116000   116            449.832       -18257.387      425.21473      164.80084      161.95708      49.052585      2436.8114    
    117000   117            448.33396     -18280.719      428.77463      176.53473      162.08061      49.052585      2436.8114    
    118000   118            445.27132     -18276.129      432.64392      167.47277      162.12593      49.052585      2436.8114    
    119000   119            445.59446     -18283.471      436.21208      171.075        162.2005       49.052585      2436.8114    
    120000   120            449.57927     -18285.904      439.82315      167.77783      162.2466       49.052585      2436.8114    
    121000   121            448.74894     -18275.285      443.33844      177.76519      162.3738       49.052585      2436.8114    
    122000   122            449.84883     -18275.662      446.86074      173.39032      162.46336      49.052585      2436.8114    
    123000   123            445.77802     -18286.548      450.33617      177.35981      162.5835       49.052585      2436.8114    
    124000   124            448.11942     -18280.232      453.74367      164.27246      162.59701      49.052585      2436.8114    
    125000   125            449.60234     -18272.462      457.41389      154.93482      162.5362       49.052585      2436.8114    
    126000   126            452.61071     -18266.5        461.21594      172.55138      162.61506      49.052585      2436.8114    
    127000   127            450.88938     -18277.704      464.72309      159.88601      162.59374      49.052585      2436.8114    
    128000   128            451.45774     -18276.027      468.50555      176.76924      162.70362      49.052585      2436.8114    
    129000   129            452.16754     -18279.045      472.07912      178.62263      162.82608      49.052585      2436.8114    
    130000   130            452.0846      -18270.696      475.87856      164.10805      162.83586      49.052585      2436.8114    
    131000   131            448.06791     -18283.462      479.20873      161.73653      162.82753      49.052585      2436.8114    
    132000   132            451.74815     -18274.631      482.73217      168.61652      162.87106      49.052585      2436.8114    
    133000   133            450.02161     -18275.359      486.56381      177.04279      162.97682      49.052585      2436.8114    
    134000   134            450.83905     -18277.159      490.11733      177.45913      163.0841       49.052585      2436.8114    
    135000   135            454.76059     -18265.278      493.79858      175.92132      163.17849      49.052585      2436.8114    
    136000   136            450.11058     -18274.956      497.32251      158.83041      163.14675      49.052585      2436.8114    
    137000   137            447.28307     -18274.227      500.75767      153.33432      163.07565      49.052585      2436.8114    
    138000   138            448.79822     -18281.754      504.59893      152.33459      162.99837      49.052585      2436.8114    
    139000   139            455.35788     -18264.559      508.24857      160.54308      162.98083      49.052585      2436.8114    
    140000   140            450.07855     -18281.615      511.79215      159.30483      162.95476      49.052585      2436.8114    
    141000   141            449.72789     -18275.408      515.53519      167.05043      162.98361      49.052585      2436.8114    
    142000   142            446.15989     -18285.766      519.27701      166.45736      163.0079       49.052585      2436.8114    
    143000   143            453.06339     -18273.803      522.86196      149.78628      162.91608      49.052585      2436.8114    
    144000   144            449.68333     -18279.529      526.63909      154.66973      162.85921      49.052585      2436.8114    
    145000   145            448.22873     -18286.66       530.09295      179.79306      162.97519      49.052585      2436.8114    
    146000   146            449.24864     -18269.124      533.62766      166.61255      162.99994      49.052585      2436.8114    
    147000   147            451.64965     -18257.32       537.10153      166.81302      163.0257       49.052585      2436.8114    
    148000   148            448.79334     -18276.291      540.95672      170.49832      163.07585      49.052585      2436.8114    
    149000   149            453.36841     -18267.379      544.91652      169.89412      163.12131      49.052585      2436.8114    
    150000   150            449.54419     -18271.836      548.32909      170.4899       163.17011      49.052585      2436.8114    
    151000   151            450.98674     -18280.158      552.21602      183.61831      163.30464      49.052585      2436.8114    
    152000   152            449.8461      -18268.343      555.89959      163.98023      163.30905      49.052585      2436.8114    
    153000   153            440.45743     -18288.13       559.3527       162.81735      163.30586      49.052585      2436.8114    
    154000   154            452.74489     -18272.376      562.93427      174.17943      163.37601      49.052585      2436.8114    
    155000   155            456.95401     -18266.615      566.83068      163.48406      163.3767       49.052585      2436.8114    
    156000   156            447.09031     -18285.651      570.35363      166.95483      163.39949      49.052585      2436.8114    
    157000   157            449.61412     -18277.074      574.05727      163.44093      163.39976      49.052585      2436.8114    
    158000   158            453.30584     -18263.474      577.78121      157.15926      163.36051      49.052585      2436.8114    
    159000   159            447.44248     -18284.057      581.70992      158.18737      163.32818      49.052585      2436.8114    
    160000   160            455.73339     -18272.764      585.33878      170.51247      163.3728       49.052585      2436.8114    
    161000   161            448.28808     -18270.858      588.58847      160.25394      163.35355      49.052585      2436.8114    
    162000   162            449.49114     -18278.13       592.52495      162.79188      163.3501       49.052585      2436.8114    
    163000   163            445.0819      -18286.454      596.25239      158.5448       163.3208       49.052585      2436.8114    
    164000   164            442.48965     -18293.438      600.2617       167.52767      163.3463       49.052585      2436.8114    
    165000   165            449.0868      -18278.648      603.88739      168.30353      163.37616      49.052585      2436.8114    
    166000   166            454.27922     -18266.246      607.70753      174.68298      163.44386      49.052585      2436.8114    
    167000   167            457.55885     -18267.992      611.45963      175.04272      163.51291      49.052585      2436.8114    
    168000   168            454.11428     -18276.069      615.37931      167.80679      163.53831      49.052585      2436.8114    
    169000   169            452.56249     -18269.251      619.26166      163.84246      163.5401       49.052585      2436.8114    
    170000   170            448.76688     -18280.391      623.13152      156.23016      163.49735      49.052585      2436.8114    
    171000   171            445.63906     -18290.004      626.85314      159.94142      163.47668      49.052585      2436.8114    
    172000   172            451.52298     -18277.954      630.56153      160.29324      163.45828      49.052585      2436.8114    
    173000   173            450.61138     -18274.288      634.20055      169.30647      163.49189      49.052585      2436.8114    
    174000   174            448.4881      -18272.237      637.82815      164.82368      163.4995       49.052585      2436.8114    
    175000   175            457.93541     -18262.246      641.48217      163.9651       163.50214      49.052585      2436.8114    
    176000   176            448.57493     -18281.931      645.01067      169.38369      163.53537      49.052585      2436.8114    
    177000   177            450.47326     -18270.876      648.69756      168.76828      163.56477      49.052585      2436.8114    
    178000   178            453.40316     -18259.585      652.21425      169.98967      163.60066      49.052585      2436.8114    
    179000   179            449.4916      -18283.275      655.8663       163.24891      163.59871      49.052585      2436.8114    
    180000   180            451.03561     -18277.326      659.63328      155.84154      163.55585      49.052585      2436.8114    
    181000   181            452.1065      -18256.944      663.38493      149.15938      163.47675      49.052585      2436.8114    
    182000   182            450.08105     -18277.602      666.80017      139.2638       163.34444      49.052585      2436.8114    
    183000   183            452.9031      -18272.226      670.34434      152.3813       163.28486      49.052585      2436.8114    
    184000   184            449.11499     -18279.814      673.93989      153.90865      163.23418      49.052585      2436.8114    
    185000   185            453.99378     -18267.579      677.54106      146.35485      163.14343      49.052585      2436.8114    
    186000   186            448.43526     -18282.873      681.45372      153.3431       163.09102      49.052585      2436.8114    
    187000   187            444.33447     -18285.189      684.90185      158.80665      163.06823      49.052585      2436.8114    
    188000   188            450.95089     -18276.646      688.90466      151.18081      163.00533      49.052585      2436.8114    
    189000   189            448.56988     -18281.697      692.38039      158.01752      162.97908      49.052585      2436.8114    
    190000   190            448.2752      -18276.03       696.19743      160.60248      162.96664      49.052585      2436.8114    
    191000   191            449.71765     -18276.784      699.83572      158.98293      162.94589      49.052585      2436.8114    
    192000   192            459.10495     -18266.811      703.48112      141.07501      162.83257      49.052585      2436.8114    
    193000   193            446.11949     -18280.194      706.96473      142.45881      162.72755      49.052585      2436.8114    
    194000   194            450.36901     -18266.658      710.49191      144.4972       162.63406      49.052585      2436.8114    
    195000   195            449.44307     -18278.81       714.06786      152.91651      162.58448      49.052585      2436.8114    
    196000   196            455.01065     -18263.019      717.84441      141.96953      162.47984      49.052585      2436.8114    
    197000   197            457.61046     -18267.661      721.52832      145.098        162.39205      49.052585      2436.8114    
    198000   198            450.5401      -18267.719      724.9837       151.0727       162.33517      49.052585      2436.8114    
    199000   199            449.52786     -18280.644      728.73184      143.64011      162.24169      49.052585      2436.8114    
    200000   200            455.94778     -18256.897      732.31883      162.89585      162.24495      49.052585      2436.8114    
    201000   201            451.73632     -18273.982      735.88717      173.50546      162.30069      49.052585      2436.8114    
    202000   202            448.56352     -18268.761      739.41832      170.5614       162.34139      49.052585      2436.8114    
    203000   203            449.0818      -18279.25       742.92654      168.37883      162.37098      49.052585      2436.8114    
    204000   204            447.72201     -18286.71       746.12926      151.07106      162.31586      49.052585      2436.8114    
    205000   205            447.51243     -18281.259      749.38325      153.17322      162.27148      49.052585      2436.8114    
    206000   206            452.60797     -18262.51       753.10949      145.96296      162.19269      49.052585      2436.8114    
    207000   207            445.74739     -18280.828      756.87421      159.47111      162.17961      49.052585      2436.8114    
    208000   208            454.09793     -18261.815      760.32333      167.88504      162.20691      49.052585      2436.8114    
    209000   209            451.71166     -18278.668      764.16933      174.09272      162.26351      49.052585      2436.8114    
    210000   210            454.14223     -18274.392      767.50521      171.57691      162.30765      49.052585      2436.8114    
    211000   211            451.94907     -18262.325      770.98675      163.60199      162.31375      49.052585      2436.8114    
    212000   212            451.57107     -18274.808      774.34538      153.01725      162.27011      49.052585      2436.8114    
    213000   213            443.95028     -18281.87       778.01644      145.88714      162.19355      49.052585      2436.8114    
    214000   214            449.4256      -18286.542      781.46659      144.83069      162.11279      49.052585      2436.8114    
    215000   215            449.54538     -18267.716      785.16662      152.01005      162.06602      49.052585      2436.8114    
    216000   216            450.10197     -18269.153      789.0649       145.77446      161.99094      49.052585      2436.8114    
    217000   217            446.28088     -18283.166      792.41354      159.73908      161.98061      49.052585      2436.8114    
    218000   218            446.80671     -18282.386      796.03057      146.48543      161.90986      49.052585      2436.8114    
    219000   219            452.15312     -18272.43       799.51947      150.29297      161.85706      49.052585      2436.8114    
    220000   220            447.91375     -18289.951      802.95842      161.68485      161.85628      49.052585      2436.8114    
    221000   221            452.42243     -18266.893      806.52052      164.97424      161.87032      49.052585      2436.8114    
    222000   222            450.20063     -18277.334      809.95896      158.49923      161.85521      49.052585      2436.8114    
    223000   223            456.94661     -18258.688      813.59429      148.09786      161.79379      49.052585      2436.8114    
    224000   224            445.2889      -18278.391      817.02891      153.94311      161.7589       49.052585      2436.8114    
    225000   225            449.11333     -18281.8        820.78285      156.37906      161.73509      49.052585      2436.8114    
    226000   226            453.19189     -18261.144      824.55782      157.16717      161.71497      49.052585      2436.8114    
    227000   227            452.87084     -18273.915      828.04361      160.14874      161.7081       49.052585      2436.8114    
    228000   228            441.63001     -18286.934      831.40967      157.18302      161.68834      49.052585      2436.8114    
    229000   229            448.49806     -18268.592      835.11523      148.12874      161.62938      49.052585      2436.8114    
    230000   230            453.97209     -18275.064      838.3218       147.96631      161.57024      49.052585      2436.8114    
    231000   231            452.60399     -18268.416      842.15887      156.00811      161.54626      49.052585      2436.8114    
    232000   232            443.741       -18289.789      845.68025      154.85409      161.51754      49.052585      2436.8114    
    233000   233            447.95883     -18275.133      849.43268      158.73983      161.50567      49.052585      2436.8114    
    234000   234            455.02806     -18259.157      853.18666      159.83118      161.49854      49.052585      2436.8114    
    235000   235            454.46027     -18284.114      856.77709      154.88973      161.47054      49.052585      2436.8114    
    236000   236            446.79836     -18277.327      860.45785      160.53193      161.46658      49.052585      2436.8114    
    237000   237            452.30901     -18273.917      864.00204      163.25868      161.47411      49.052585      2436.8114    
    238000   238            451.72731     -18265.991      867.52843      154.31986      161.44418      49.052585      2436.8114    
    239000   239            453.39655     -18266.162      871.2726       152.40397      161.40651      49.052585      2436.8114    
    240000   240            446.99146     -18274.517      874.90984      154.11538      161.37626      49.052585      2436.8114    
    241000   241            450.48334     -18272.735      878.7579       149.13985      161.32569      49.052585      2436.8114    
    242000   242            451.60597     -18271.257      882.41039      155.2993       161.30089      49.052585      2436.8114    
    243000   243            451.0104      -18271.725      885.92608      159.21633      161.29235      49.052585      2436.8114    
    244000   244            453.10052     -18261.963      889.56614      155.2842       161.26783      49.052585      2436.8114    
    245000   245            452.56403     -18272.241      893.25971      150.8619       161.22552      49.052585      2436.8114    
    246000   246            455.57451     -18277.586      897.02143      151.81199      161.18741      49.052585      2436.8114    
    247000   247            445.10567     -18285.001      900.53074      141.33619      161.10737      49.052585      2436.8114    
    248000   248            449.87461     -18274.784      904.3634       143.71277      161.03751      49.052585      2436.8114    
    249000   249            447.08084     -18282.36       907.7974       143.24283      160.96633      49.052585      2436.8114    
    250000   250            446.86967     -18289.868      911.05629      151.42909      160.92833      49.052585      2436.8114    
    251000   251            446.53679     -18275.967      914.9671       146.38548      160.87062      49.052585      2436.8114    
    252000   252            451.20063     -18283.673      918.67111      146.24059      160.8128       49.052585      2436.8114    
    253000   253            443.96949     -18280.751      922.26276      151.95217      160.77791      49.052585      2436.8114    
    254000   254            451.77288     -18264.783      925.88541      142.56125      160.70648      49.052585      2436.8114    
    255000   255            454.40537     -18275.995      929.47979      165.56896      160.72547      49.052585      2436.8114    
    256000   256            454.51287     -18271.286      932.9343       156.07899      160.70739      49.052585      2436.8114    
    257000   257            446.46287     -18275.086      936.38103      149.12967      160.66252      49.052585      2436.8114    
    258000   258            444.92284     -18283.412      939.90125      156.66211      160.64707      49.052585      2436.8114    
    259000   259            450.34833     -18266.598      943.28851      168.04793      160.67554      49.052585      2436.8114    
    260000   260            453.3974      -18270.082      946.95711      169.44319      160.70913      49.052585      2436.8114    
    261000   261            450.82772     -18280.91       950.60061      171.81412      160.75151      49.052585      2436.8114    
    262000   262            453.58498     -18264.728      954.58412      162.41281      160.75783      49.052585      2436.8114    
    263000   263            451.9771      -18270.289      958.26327      175.7809       160.81474      49.052585      2436.8114    
    264000   264            454.11688     -18280.246      961.6815       174.35472      160.86583      49.052585      2436.8114    
    265000   265            449.02356     -18269.178      965.23765      169.88166      160.89972      49.052585      2436.8114    
    266000   266            449.18665     -18271.584      968.79453      172.94488      160.94484      49.052585      2436.8114    
    267000   267            446.56902     -18279.809      972.52789      163.82815      160.9556       49.052585      2436.8114    
    268000   268            453.91201     -18266.365      976.13852      153.57095      160.92814      49.052585      2436.8114    
    269000   269            450.96352     -18278.512      979.69815      159.70082      160.9236       49.052585      2436.8114    
    270000   270            452.48273     -18275.969      983.4722       157.20432      160.90987      49.052585      2436.8114    
    271000   271            447.89637     -18279.889      986.96386      146.11466      160.85548      49.052585      2436.8114    
    272000   272            450.21629     -18274.161      990.51648      152.15919      160.82362      49.052585      2436.8114    
    273000   273            450.08591     -18274.128      994.17333      157.11511      160.81009      49.052585      2436.8114    
    274000   274            446.02699     -18286.733      997.90131      155.42703      160.79051      49.052585      2436.8114    
    275000   275            453.56802     -18266.619      1001.4641      142.34972      160.7237       49.052585      2436.8114    
    276000   276            446.73463     -18278.005      1004.86        168.02733      160.75007      49.052585      2436.8114    
    277000   277            445.32337     -18289.397      1008.9394      162.60313      160.75673      49.052585      2436.8114    
    278000   278            449.4433      -18277.018      1012.7401      160.09377      160.75436      49.052585      2436.8114    
    279000   279            454.07873     -18265.421      1016.5036      172.14016      160.79502      49.052585      2436.8114    
    280000   280            452.54328     -18268.276      1020.2476      164.6504       160.80874      49.052585      2436.8114    
    281000   281            452.52937     -18273.765      1023.87        164.61703      160.82225      49.052585      2436.8114    
    282000   282            452.28626     -18266.191      1027.3423      155.38437      160.80303      49.052585      2436.8114    
    283000   283            449.92275     -18274.05       1031.396       150.60369      160.76712      49.052585      2436.8114    
    284000   284            450.25266     -18280.656      1034.6208      143.62334      160.70696      49.052585      2436.8114    
    285000   285            455.07464     -18261.35       1038.1611      152.28738      160.67752      49.052585      2436.8114    
    286000   286            450.87054     -18273.509      1041.687       156.0616       160.66144      49.052585      2436.8114    
    287000   287            446.28996     -18274.604      1045.3593      134.59315      160.57093      49.052585      2436.8114    
    288000   288            442.07579     -18288.948      1049.0242      142.9412       160.50992      49.052585      2436.8114    
    289000   289            449.48126     -18282.798      1052.721       157.69248      160.50021      49.052585      2436.8114    
    290000   290            455.11104     -18263.971      1056.5837      156.72926      160.48725      49.052585      2436.8114    
    291000   291            449.79232     -18280.033      1060.4312      163.66367      160.49813      49.052585      2436.8114    
    292000   292            445.45979     -18283.7        1063.9832      172.70066      160.53977      49.052585      2436.8114    
    293000   293            450.00925     -18272.12       1067.5127      164.15317      160.55207      49.052585      2436.8114    
    294000   294            448.95425     -18275.693      1071.1175      171.63073      160.58962      49.052585      2436.8114    
    295000   295            448.60513     -18277.178      1074.8402      168.90587      160.61772      49.052585      2436.8114    
    296000   296            447.67294     -18282.046      1078.3911      174.29246      160.66376      49.052585      2436.8114    
    297000   297            450.68734     -18272.692      1081.9634      168.77889      160.69099      49.052585      2436.8114    
    298000   298            453.72473     -18264.227      1085.3733      157.18978      160.67928      49.052585      2436.8114    
    299000   299            451.97654     -18282.536      1089.4198      169.92819      160.71011      49.052585      2436.8114    
    300000   300            453.45834     -18270.521      1092.8218      161.49035      160.7127       49.052585      2436.8114    
    301000   301            448.4135      -18295.712      1096.3984      177.63251      160.76873      49.052585      2436.8114    
    302000   302            450.80004     -18279.476      1100.337       175.31385      160.81673      49.052585      2436.8114    
    303000   303            451.33329     -18266.922      1103.8722      162.4325       160.82205      49.052585      2436.8114    
    304000   304            451.44296     -18269.076      1107.4681      160.03746      160.81947      49.052585      2436.8114    
    305000   305            446.28992     -18279.404      1111.196       150.81308      160.78677      49.052585      2436.8114    
    306000   306            448.24543     -18286.991      1114.7508      148.35663      160.74628      49.052585      2436.8114    
    307000   307            449.15722     -18270.977      1118.2549      143.33501      160.68975      49.052585      2436.8114    
    308000   308            449.4246      -18283.149      1121.7693      143.24974      160.63331      49.052585      2436.8114    
    309000   309            456.39515     -18274.862      1125.7721      138.44931      160.56175      49.052585      2436.8114    
    310000   310            453.74088     -18273.64       1129.2865      151.48084      160.53255      49.052585      2436.8114    
    311000   311            448.38226     -18274.516      1132.952       143.25842      160.47719      49.052585      2436.8114    
    312000   312            449.74566     -18278.864      1136.292       152.86609      160.45287      49.052585      2436.8114    
    313000   313            454.92749     -18277.784      1140.0876      145.5478       160.4054       49.052585      2436.8114    
    314000   314            452.6311      -18269.206      1143.7196      144.44013      160.35472      49.052585      2436.8114    
    315000   315            449.97526     -18268.224      1147.527       152.73618      160.33061      49.052585      2436.8114    
    316000   316            446.11787     -18279.103      1151.2646      148.29746      160.29265      49.052585      2436.8114    
    317000   317            447.00876     -18285.688      1154.776       146.63691      160.24971      49.052585      2436.8114    
    318000   318            449.18        -18269.986      1158.3391      146.57504      160.20684      49.052585      2436.8114    
    319000   319            447.21371     -18283.786      1162.2069      150.07757      160.17519      49.052585      2436.8114    
    320000   320            446.99563     -18275.451      1165.9814      141.97623      160.11849      49.052585      2436.8114    
    321000   321            451.87134     -18266.386      1169.5434      145.36169      160.07266      49.052585      2436.8114    
    322000   322            454.84303     -18276.793      1173.2693      148.15167      160.03576      49.052585      2436.8114    
    323000   323            450.30265     -18276.999      1176.9546      164.04969      160.04815      49.052585      2436.8114    
    324000   324            446.82375     -18269.532      1180.5055      162.84633      160.05676      49.052585      2436.8114    
    325000   325            443.52384     -18286.432      1183.7798      163.97448      160.06877      49.052585      2436.8114    
    326000   326            450.25101     -18274.477      1187.5037      160.03205      160.06866      49.052585      2436.8114    
    327000   327            447.2866      -18281.353      1191.0679      148.9183       160.03467      49.052585      2436.8114    
    328000   328            449.72921     -18269.472      1194.5967      139.42275      159.97202      49.052585      2436.8114    
    329000   329            450.95141     -18276.242      1198.4942      149.4863       159.94024      49.052585      2436.8114    
    330000   330            452.40948     -18268.722      1202.0741      142.52936      159.88764      49.052585      2436.8114    
    331000   331            454.7142      -18268.503      1205.8422      145.77604      159.84514      49.052585      2436.8114    
    332000   332            448.9061      -18276.822      1209.5658      148.93202      159.81236      49.052585      2436.8114    
    333000   333            444.22391     -18290.716      1213.3097      151.34542      159.78701      49.052585      2436.8114    
    334000   334            451.87359     -18269.87       1216.7739      161.19437      159.79121      49.052585      2436.8114    
    335000   335            452.42545     -18272.788      1220.2683      162.41894      159.79903      49.052585      2436.8114    
    336000   336            447.50954     -18287.082      1223.989       162.65351      159.8075       49.052585      2436.8114    
    337000   337            452.66788     -18270.744      1227.6339      163.308        159.81786      49.052585      2436.8114    
    338000   338            444.96726     -18291.796      1231.3907      148.24601      159.78373      49.052585      2436.8114    
    339000   339            453.01742     -18268.675      1235.0178      154.63479      159.76858      49.052585      2436.8114    
    340000   340            440.57691     -18301.453      1238.7544      153.02128      159.7488       49.052585      2436.8114    
    341000   341            454.50092     -18268.147      1242.196       161.57532      159.75414      49.052585      2436.8114    
    342000   342            451.35489     -18271.356      1245.6545      159.90193      159.75457      49.052585      2436.8114    
    343000   343            448.17021     -18287.008      1249.1035      163.53261      159.76555      49.052585      2436.8114    
    344000   344            448.02416     -18280.356      1252.7273      164.27284      159.77861      49.052585      2436.8114    
    345000   345            457.15357     -18265.429      1256.4719      175.19145      159.82316      49.052585      2436.8114    
    346000   346            447.56796     -18270.1        1259.8613      187.84395      159.90391      49.052585      2436.8114    
    347000   347            446.71353     -18272.768      1263.4937      187.94562      159.98449      49.052585      2436.8114    
    348000   348            448.5714      -18275.92       1267.0167      178.89591      160.03868      49.052585      2436.8114    
    349000   349            446.01515     -18276.499      1271.0742      165.92102      160.05549      49.052585      2436.8114    
    350000   350            454.08655     -18267.417      1274.5841      174.157        160.09566      49.052585      2436.8114    
    351000   351            447.86573     -18277.398      1278.153       176.76762      160.14302      49.052585      2436.8114    
    352000   352            450.50372     -18272.867      1281.9163      170.44863      160.17222      49.052585      2436.8114    
    353000   353            451.96248     -18270.023      1285.2666      176.74694      160.21904      49.052585      2436.8114    
    354000   354            447.86938     -18287.28       1288.8373      174.88427      160.26035      49.052585      2436.8114    
    355000   355            451.00902     -18271.083      1292.4303      167.11994      160.27962      49.052585      2436.8114    
    356000   356            451.89697     -18262.144      1295.7992      160.62084      160.28057      49.052585      2436.8114    
    357000   357            447.18054     -18280.959      1299.2739      184.37599      160.34788      49.052585      2436.8114    
    358000   358            451.88538     -18280.775      1302.8805      179.79283      160.40204      49.052585      2436.8114    
    359000   359            450.13549     -18275.181      1306.1792      173.46835      160.43834      49.052585      2436.8114    
    360000   360            450.12506     -18278.521      1309.8044      156.43722      160.42726      49.052585      2436.8114    
    361000   361            446.22867     -18275.881      1313.4483      177.62191      160.47476      49.052585      2436.8114    
    362000   362            446.51366     -18278.06       1317.18        159.57659      160.47228      49.052585      2436.8114    
    363000   363            450.5139      -18262.226      1320.6517      154.28519      160.45528      49.052585      2436.8114    
    364000   364            451.07966     -18280.381      1323.9541      167.42886      160.47439      49.052585      2436.8114    
    365000   365            454.46454     -18265.016      1327.5445      168.03067      160.49503      49.052585      2436.8114    
    366000   366            448.113       -18293.822      1331.0108      164.69804      160.50649      49.052585      2436.8114    
    367000   367            448.58051     -18278.576      1334.9176      172.2111       160.53829      49.052585      2436.8114    
    368000   368            445.49042     -18284.06       1338.4329      160.70989      160.53876      49.052585      2436.8114    
    369000   369            451.89672     -18273.193      1341.9138      174.00953      160.57517      49.052585      2436.8114    
    370000   370            457.27998     -18276.225      1345.586       161.45116      160.57753      49.052585      2436.8114    
    371000   371            453.41586     -18276.541      1349.1649      161.66054      160.58044      49.052585      2436.8114    
    372000   372            448.73828     -18281.306      1352.5636      172.30614      160.61187      49.052585      2436.8114    
    373000   373            447.48608     -18276.755      1356.2602      153.46558      160.59277      49.052585      2436.8114    
    374000   374            449.29237     -18266.425      1360.5916      157.0235       160.58325      49.052585      2436.8114    
    375000   375            449.23096     -18274.844      1364.3719      157.951        160.57625      49.052585      2436.8114    
    376000   376            450.32722     -18280.837      1368.0679      149.51189      160.5469       49.052585      2436.8114    
    377000   377            454.11745     -18271.291      1371.715       149.21641      160.51692      49.052585      2436.8114    
    378000   378            456.46743     -18262.258      1375.5905      164.95364      160.52863      49.052585      2436.8114    
    379000   379            448.34064     -18280.552      1378.9807      163.36432      160.53609      49.052585      2436.8114    
    380000   380            455.51189     -18265.009      1382.8721      169.63539      160.55998      49.052585      2436.8114    
    381000   381            451.54866     -18267.167      1386.6186      162.66825      160.56549      49.052585      2436.8114    
    382000   382            448.47286     -18277.067      1390.3429      145.6765       160.52662      49.052585      2436.8114    
    383000   383            449.14623     -18277.966      1394.1758      143.51443      160.48232      49.052585      2436.8114    
    384000   384            444.68539     -18278.845      1397.7287      152.44451      160.46144      49.052585      2436.8114    
    385000   385            449.46163     -18274.957      1401.3186      158.55616      160.4565       49.052585      2436.8114    
    386000   386            449.91428     -18266.962      1404.9561      160.01918      160.45537      49.052585      2436.8114    
    387000   387            445.1632      -18281.959      1408.829       166.93436      160.47207      49.052585      2436.8114    
    388000   388            451.37397     -18271.935      1412.5846      158.55483      160.46714      49.052585      2436.8114    
    389000   389            452.70339     -18260.287      1416.2252      164.27648      160.47691      49.052585      2436.8114    
    390000   390            451.1748      -18277.419      1419.8645      165.49272      160.48974      49.052585      2436.8114    
    391000   391            446.78077     -18281.549      1423.7461      154.96565      160.47565      49.052585      2436.8114    
    392000   392            449.40243     -18262.414      1427.1781      155.85508      160.46389      49.052585      2436.8114    
    393000   393            452.8457      -18270.591      1430.7528      165.96389      160.47785      49.052585      2436.8114    
    394000   394            442.47964     -18288.751      1434.5949      160.00372      160.47665      49.052585      2436.8114    
    395000   395            453.82334     -18269.847      1438.3044      157.60843      160.46941      49.052585      2436.8114    
    396000   396            449.54583     -18275.981      1441.8382      147.63528      160.43708      49.052585      2436.8114    
    397000   397            448.69316     -18280.589      1445.6334      151.70422      160.41514      49.052585      2436.8114    
    398000   398            448.28088     -18280.395      1449.18        152.39621      160.39504      49.052585      2436.8114    
    399000   399            451.78279     -18273.545      1452.7025      140.26636      160.34472      49.052585      2436.8114    
    400000   400            445.69091     -18270.136      1456.2275      148.7133       160.31571      49.052585      2436.8114    
    401000   401            451.3124      -18281.745      1459.964       143.17598      160.27308      49.052585      2436.8114    
    402000   402            452.98342     -18272.287      1463.601       153.17921      160.25547      49.052585      2436.8114    
    403000   403            450.12985     -18283.76       1467.0885      145.31314      160.21849      49.052585      2436.8114    
    404000   404            454.7463      -18268.566      1470.7645      158.74891      160.21486      49.052585      2436.8114    
    405000   405            444.12057     -18279.904      1474.5239      154.30163      160.20029      49.052585      2436.8114    
    406000   406            447.91029     -18273.261      1478.6776      155.12124      160.18781      49.052585      2436.8114    
    407000   407            449.55736     -18281.154      1482.4077      154.50721      160.17389      49.052585      2436.8114    
    408000   408            450.28606     -18272.988      1486.3622      148.74009      160.14594      49.052585      2436.8114    
    409000   409            445.5321      -18290.265      1490.0693      143.41762      160.10514      49.052585      2436.8114    
    410000   410            447.55169     -18272.564      1493.9206      140.82595      160.05823      49.052585      2436.8114    
    411000   411            450.00627     -18269.638      1497.7381      145.94954      160.02398      49.052585      2436.8114    
    412000   412            441.39492     -18303.282      1501.7023      157.05788      160.0168       49.052585      2436.8114    
    413000   413            455.84623     -18258.708      1505.34        161.98708      160.02156      49.052585      2436.8114    
    414000   414            448.32289     -18276.85       1509.0939      172.46614      160.05155      49.052585      2436.8114    
    415000   415            446.97951     -18284.668      1512.8924      164.73807      160.06281      49.052585      2436.8114    
    416000   416            445.02683     -18282.508      1516.4744      156.15255      160.05344      49.052585      2436.8114    
    417000   417            449.73886     -18287.23       1520.0175      168.64278      160.07398      49.052585      2436.8114    
    418000   418            450.21446     -18269.474      1523.7129      158.55116      160.07035      49.052585      2436.8114    
    419000   419            443.68739     -18283.068      1527.2738      149.83522      160.04598      49.052585      2436.8114    
    420000   420            449.87487     -18269.404      1530.7747      150.2149       160.02263      49.052585      2436.8114    
    421000   421            448.28409     -18280.075      1534.6674      149.67667      159.99811      49.052585      2436.8114    
    422000   422            446.17528     -18289.652      1538.2899      155.46511      159.9874       49.052585      2436.8114    
    423000   423            451.43922     -18272.438      1541.6304      141.41597      159.9436       49.052585      2436.8114    
    424000   424            450.64714     -18286.616      1545.5309      144.04168      159.90618      49.052585      2436.8114    
    425000   425            452.03463     -18262.813      1549.222       157.45306      159.90042      49.052585      2436.8114    
    426000   426            452.18901     -18269.278      1553.4842      161.78343      159.90483      49.052585      2436.8114    
    427000   427            449.64652     -18278.161      1557.0289      163.75495      159.91383      49.052585      2436.8114    
    428000   428            451.54736     -18273.775      1560.5848      161.19233      159.91681      49.052585      2436.8114    
    429000   429            448.0158      -18270.452      1564.2233      153.16118      159.9011       49.052585      2436.8114    
    430000   430            451.13735     -18280.668      1567.804       158.42552      159.89767      49.052585      2436.8114    
    431000   431            447.06711     -18286.482      1571.4922      165.55         159.91076      49.052585      2436.8114    
    432000   432            449.63107     -18268.821      1575.022       172.12513      159.93896      49.052585      2436.8114    
    433000   433            450.16311     -18282.481      1578.5197      162.45067      159.94475      49.052585      2436.8114    
    434000   434            453.04601     -18259.45       1582.1253      163.49678      159.95292      49.052585      2436.8114    
    435000   435            447.85522     -18275.601      1586.3737      151.62676      159.93382      49.052585      2436.8114    
    436000   436            445.96386     -18285.138      1589.9585      161.44969      159.93729      49.052585      2436.8114    
    437000   437            451.7143      -18270.936      1593.4785      154.91411      159.92582      49.052585      2436.8114    
    438000   438            451.90882     -18276.154      1597.1127      156.45199      159.91791      49.052585      2436.8114    
    439000   439            444.61698     -18284.4        1600.8921      152.27494      159.90054      49.052585      2436.8114    
    440000   440            447.71779     -18276.619      1604.5714      148.0737       159.87372      49.052585      2436.8114    
    441000   441            449.35826     -18283.856      1608.2213      166.50233      159.88872      49.052585      2436.8114    
    442000   442            445.94617     -18284.191      1612.0903      154.03759      159.87551      49.052585      2436.8114    
    443000   443            445.50591     -18280.517      1615.791       155.85129      159.86644      49.052585      2436.8114    
    444000   444            448.90222     -18270.01       1619.3318      161.02816      159.86906      49.052585      2436.8114    
    445000   445            452.33231     -18279.683      1623.488       158.58207      159.86617      49.052585      2436.8114    
    446000   446            444.16329     -18285.817      1627.1434      163.93024      159.87526      49.052585      2436.8114    
    447000   447            453.02841     -18277.392      1630.6365      151.76236      159.85715      49.052585      2436.8114    
    448000   448            444.71774     -18276.775      1633.9279      147.93814      159.83061      49.052585      2436.8114    
    449000   449            448.57674     -18277.953      1637.4228      161.55749      159.83444      49.052585      2436.8114    
    450000   450            454.87662     -18265.983      1640.7847      169.64812      159.8562       49.052585      2436.8114    
    451000   451            447.23456     -18280.058      1644.5069      155.00571      159.84547      49.052585      2436.8114    
    452000   452            456.33779     -18262.537      1648.2675      157.7209       159.84078      49.052585      2436.8114    
    453000   453            451.54361     -18270.092      1651.7429      152.18012      159.82391      49.052585      2436.8114    
    454000   454            449.058       -18280.854      1655.3443      154.39988      159.81199      49.052585      2436.8114    
    455000   455            449.86348     -18277.76       1659.0043      153.21229      159.79752      49.052585      2436.8114    
    456000   456            455.89119     -18273.567      1662.3402      148.76624      159.77338      49.052585      2436.8114    
    457000   457            446.25242     -18284.862      1666.1867      148.48335      159.74873      49.052585      2436.8114    
    458000   458            452.36814     -18273.102      1670.127       161.3184       159.75215      49.052585      2436.8114    
    459000   459            457.08593     -18263.443      1673.7471      147.85707      159.72629      49.052585      2436.8114    
    460000   460            451.04879     -18285.178      1677.5306      151.99371      159.70951      49.052585      2436.8114    
    461000   461            449.08436     -18278.103      1680.9903      154.19731      159.69758      49.052585      2436.8114    
    462000   462            453.16527     -18274.528      1684.6803      152.97885      159.68307      49.052585      2436.8114    
    463000   463            449.18574     -18276.976      1688.6342      162.29931      159.68871      49.052585      2436.8114    
    464000   464            450.63494     -18286.488      1692.2535      166.8898       159.7042       49.052585      2436.8114    
    465000   465            443.35272     -18294.563      1696.2872      162.94369      159.71115      49.052585      2436.8114    
    466000   466            451.95396     -18275.497      1699.7439      163.95042      159.72023      49.052585      2436.8114    
    467000   467            447.00922     -18282.94       1703.3279      156.56955      159.71349      49.052585      2436.8114    
    468000   468            451.39834     -18273.381      1706.986       155.15178      159.70377      49.052585      2436.8114    
    469000   469            447.029       -18279.977      1710.8821      147.24423      159.67726      49.052585      2436.8114    
    470000   470            447.3617      -18282.851      1714.4175      145.29986      159.64673      49.052585      2436.8114    
    471000   471            453.21043     -18259.697      1717.9999      138.82993      159.60263      49.052585      2436.8114    
    472000   472            450.7214      -18272.834      1721.6888      151.84335      159.58622      49.052585      2436.8114    
    473000   473            451.74951     -18282.571      1725.0908      147.71214      159.56117      49.052585      2436.8114    
    474000   474            445.29372     -18292.666      1728.8252      145.91784      159.53245      49.052585      2436.8114    
    475000   475            449.03333     -18276.543      1732.2221      150.07071      159.51257      49.052585      2436.8114    
    476000   476            447.56313     -18278.131      1735.8331      150.40832      159.49349      49.052585      2436.8114    
    477000   477            456.76558     -18265.166      1739.4384      141.25461      159.45533      49.052585      2436.8114    
    478000   478            448.13748     -18283.855      1742.9893      156.3693       159.44889      49.052585      2436.8114    
    479000   479            449.44364     -18285.021      1746.4581      153.2457       159.43596      49.052585      2436.8114    
    480000   480            448.98121     -18278.089      1749.8347      159.84191      159.43681      49.052585      2436.8114    
    481000   481            450.11235     -18268.399      1753.3973      150.83654      159.41896      49.052585      2436.8114    
    482000   482            445.98861     -18278.96       1756.9724      142.65345      159.38425      49.052585      2436.8114    
    483000   483            450.39617     -18267.204      1761.036       147.11494      159.3589       49.052585      2436.8114    
    484000   484            451.74454     -18278.544      1764.694       153.89409      159.34764      49.052585      2436.8114    
    485000   485            453.51341     -18270.527      1768.0872      153.5732       159.33575      49.052585      2436.8114    
    486000   486            445.06282     -18281.624      1771.6527      135.10676      159.286        49.052585      2436.8114    
    487000   487            454.00181     -18265.681      1775.569       160.61782      159.28873      49.052585      2436.8114    
    488000   488            446.19509     -18282.211      1779.0416      144.88602      159.25928      49.052585      2436.8114    
    489000   489            451.85869     -18280.19       1782.6131      157.64907      159.25599      49.052585      2436.8114    
    490000   490            456.36802     -18264.934      1786.2005      161.06869      159.25968      49.052585      2436.8114    
    491000   491            446.53691     -18286.095      1789.8234      159.72481      159.26063      49.052585      2436.8114    
    492000   492            456.53452     -18260.193      1793.4644      156.93711      159.25592      49.052585      2436.8114    
    493000   493            447.80309     -18283.445      1797.3181      166.50179      159.27058      49.052585      2436.8114    
    494000   494            451.4897      -18266.859      1801.1076      148.66232      159.24915      49.052585      2436.8114    
    495000   495            450.34981     -18279.528      1804.9805      154.93566      159.24046      49.052585      2436.8114    
    496000   496            451.35104     -18274.958      1808.5318      149.80877      159.22148      49.052585      2436.8114    
    497000   497            449.61037     -18278.421      1812.2696      158.84795      159.22073      49.052585      2436.8114    
    498000   498            456.40515     -18265.972      1815.7023      150.19939      159.20265      49.052585      2436.8114    
    499000   499            450.33708     -18282.708      1819.3059      157.47945      159.1992       49.052585      2436.8114    
    500000   500            454.77156     -18270.186      1822.7375      160.16053      159.20112      49.052585      2436.8114    
    501000   501            453.60757     -18279.112      1826.3864      163.05584      159.2088       49.052585      2436.8114    
    502000   502            450.02974     -18270.761      1830.0854      159.65687      159.20969      49.052585      2436.8114    
    503000   503            452.50331     -18270.567      1833.5741      164.35755      159.21991      49.052585      2436.8114    
    504000   504            451.88497     -18268.486      1837.2857      157.50222      159.21651      49.052585      2436.8114    
    505000   505            454.58723     -18273.835      1840.6588      155.44687      159.20906      49.052585      2436.8114    
    506000   506            450.16849     -18286.006      1844.2684      163.40694      159.21734      49.052585      2436.8114    
    507000   507            453.48583     -18278.675      1847.9772      162.14552      159.2231       49.052585      2436.8114    
    508000   508            455.07427     -18269.75       1851.5         160.31623      159.22525      49.052585      2436.8114    
    509000   509            451.82035     -18276.21       1855.3004      168.51153      159.24346      49.052585      2436.8114    
    510000   510            451.10885     -18276.836      1859.3498      160.88565      159.24667      49.052585      2436.8114    
    511000   511            450.88333     -18272.298      1863.0176      170.63174      159.26891      49.052585      2436.8114    
    512000   512            444.05279     -18286.279      1866.4878      151.7435       159.25424      49.052585      2436.8114    
    513000   513            457.82631     -18264.609      1870.0991      163.76246      159.26301      49.052585      2436.8114    
    514000   514            449.51327     -18278.904      1873.7905      173.02336      159.28973      49.052585      2436.8114    
    515000   515            450.42533     -18271.362      1877.0436      161.51362      159.29404      49.052585      2436.8114    
    516000   516            447.52952     -18278.359      1880.4208      152.88195      159.28163      49.052585      2436.8114    
    517000   517            455.26698     -18278.113      1884.2857      155.78117      159.27488      49.052585      2436.8114    
    518000   518            454.16412     -18272.996      1887.9873      170.0978       159.29573      49.052585      2436.8114    
    519000   519            453.82677     -18269.122      1891.3405      159.76258      159.29663      49.052585      2436.8114    
    520000   520            448.41337     -18276.09       1894.8861      160.53933      159.29901      49.052585      2436.8114    
    521000   521            441.18215     -18293.975      1898.634       163.24161      159.30657      49.052585      2436.8114    
    522000   522            453.147       -18272.284      1902.5314      163.93021      159.31541      49.052585      2436.8114    
    523000   523            446.56754     -18278.18       1906.135       169.63681      159.3351       49.052585      2436.8114    
    524000   524            449.19081     -18279.216      1909.4938      170.59859      159.35656      49.052585      2436.8114    
    525000   525            455.12185     -18258.452      1913.0278      161.61319      159.36085      49.052585      2436.8114    
    526000   526            448.69532     -18286.271      1916.6321      167.70021      159.37667      49.052585      2436.8114    
    527000   527            456.38333     -18262.454      1919.9367      158.85494      159.37568      49.052585      2436.8114    
    528000   528            446.64548     -18285.765      1923.7953      170.93718      159.39754      49.052585      2436.8114    
    529000   529            453.82083     -18265.535      1927.5185      170.77691      159.41901      49.052585      2436.8114    
    530000   530            452.79826     -18277.517      1931.3705      174.21466      159.44687      49.052585      2436.8114    
    531000   531            450.79976     -18283.5        1935.1668      170.69365      159.46801      49.052585      2436.8114    
    532000   532            454.14012     -18271.23       1938.6407      164.62768      159.47769      49.052585      2436.8114    
    533000   533            451.77956     -18282.694      1942.4445      162.98626      159.48426      49.052585      2436.8114    
    534000   534            449.4223      -18276.747      1946.0379      159.08634      159.48352      49.052585      2436.8114    
    535000   535            451.30293     -18262.518      1949.6813      162.3358       159.48884      49.052585      2436.8114    
    536000   536            451.37547     -18284.236      1953.3461      165.96624      159.5009       49.052585      2436.8114    
    537000   537            452.65968     -18271.073      1957.132       167.86748      159.51646      49.052585      2436.8114    
    538000   538            449.78921     -18274.256      1960.9608      170.80053      159.53739      49.052585      2436.8114    
    539000   539            450.96127     -18283.454      1964.4         172.9106       159.56216      49.052585      2436.8114    
    540000   540            447.55383     -18289.491      1967.9348      181.7922       159.60325      49.052585      2436.8114    
    541000   541            445.13772     -18286.231      1971.75        174.58903      159.6309       49.052585      2436.8114    
    542000   542            454.87894     -18268.712      1975.5655      161.64532      159.63461      49.052585      2436.8114    
    543000   543            446.67196     -18284.624      1978.9551      155.82808      159.62761      49.052585      2436.8114    
    544000   544            450.30376     -18273.363      1982.7257      168.75289      159.64435      49.052585      2436.8114    
    545000   545            449.87385     -18280.197      1986.5215      177.22706      159.67655      49.052585      2436.8114    
    546000   546            451.46123     -18271.377      1989.9672      160.4062       159.67789      49.052585      2436.8114    
    547000   547            449.58331     -18282.295      1993.5188      156.79099      159.67262      49.052585      2436.8114    
    548000   548            449.96851     -18277.488      1997.0215      160.86069      159.67478      49.052585      2436.8114    
    549000   549            448.58075     -18277.522      2000.8248      152.09738      159.66101      49.052585      2436.8114    
    550000   550            455.48765     -18271.995      2004.3066      164.90874      159.67053      49.052585      2436.8114    
    551000   551            449.18103     -18284.106      2007.956       152.01643      159.65667      49.052585      2436.8114    
    552000   552            444.3244      -18285.19       2011.4497      151.37671      159.64169      49.052585      2436.8114    
    553000   553            446.77533     -18281.011      2014.9259      166.15511      159.65345      49.052585      2436.8114    
    554000   554            445.65686     -18272.207      2018.476       145.95953      159.62878      49.052585      2436.8114    
    555000   555            447.086       -18277.346      2021.9503      144.04073      159.60074      49.052585      2436.8114    
    556000   556            458.22293     -18263.354      2025.8815      145.28193      159.57503      49.052585      2436.8114    
    557000   557            446.52516     -18280.658      2029.4259      137.85749      159.53611      49.052585      2436.8114    
    558000   558            451.95906     -18274.973      2033.0406      145.79269      159.51153      49.052585      2436.8114    
    559000   559            452.41646     -18276.099      2036.7764      136.26294      159.47001      49.052585      2436.8114    
    560000   560            456.25287     -18272.212      2040.4695      146.02049      159.44604      49.052585      2436.8114    
    561000   561            448.39285     -18279.089      2044.3171      157.02004      159.44172      49.052585      2436.8114    
    562000   562            455.07693     -18268.822      2048.2804      165.41009      159.45232      49.052585      2436.8114    
    563000   563            446.53908     -18291.816      2051.7471      158.95131      159.45143      49.052585      2436.8114    
    564000   564            448.96408     -18282.025      2055.492       151.52339      159.4374       49.052585      2436.8114    
    565000   565            447.85522     -18279.144      2059.1295      144.70792      159.41138      49.052585      2436.8114    
    566000   566            456.30712     -18270.395      2063.0864      143.26958      159.38291      49.052585      2436.8114    
    567000   567            444.58539     -18295.434      2066.8079      149.20026      159.36498      49.052585      2436.8114    
    568000   568            452.45313     -18269.42       2070.39        147.01527      159.34328      49.052585      2436.8114    
    569000   569            449.40414     -18276.762      2074.0161      148.44489      159.32416      49.052585      2436.8114    
    570000   570            456.27952     -18268.339      2077.6313      153.52981      159.31401      49.052585      2436.8114    
    571000   571            449.73769     -18278.079      2081.0494      159.73681      159.31475      49.052585      2436.8114    
    572000   572            452.00734     -18271.535      2084.8624      163.43349      159.32194      49.052585      2436.8114    
    573000   573            451.5391      -18268.597      2088.6992      165.04452      159.33191      49.052585      2436.8114    
    574000   574            448.95064     -18280.511      2092.5142      155.56543      159.32536      49.052585      2436.8114    
    575000   575            452.09536     -18261.135      2096.1438      146.76765      159.30355      49.052585      2436.8114    
    576000   576            450.16348     -18277.611      2099.7813      153.34113      159.29322      49.052585      2436.8114    
    577000   577            453.31286     -18272.226      2103.4974      153.04743      159.28242      49.052585      2436.8114    
    578000   578            453.69301     -18278.842      2106.959       148.57359      159.26392      49.052585      2436.8114    
    579000   579            450.69404     -18268.318      2110.6241      142.31732      159.2347       49.052585      2436.8114    
    580000   580            450.24412     -18272.707      2114.2151      151.10459      159.22071      49.052585      2436.8114    
    581000   581            448.07802     -18276.761      2117.8952      154.42137      159.21246      49.052585      2436.8114    
    582000   582            451.73211     -18270.39       2121.4115      147.11288      159.19171      49.052585      2436.8114    
    583000   583            449.55884     -18277.645      2125.2961      134.32387      159.14913      49.052585      2436.8114    
    584000   584            445.51174     -18283.508      2128.7008      138.61001      159.11402      49.052585      2436.8114    
    585000   585            444.95618     -18283.581      2132.5711      140.80786      159.08278      49.052585      2436.8114    
    586000   586            446.97151     -18276.374      2136.2588      148.48903      159.06473      49.052585      2436.8114    
    587000   587            448.57984     -18282.067      2139.9301      155.54946      159.05875      49.052585      2436.8114    
[...]
   2860000   2860           450.91594     -18270.831      10481.618      159.88337      158.29785      49.052585      2436.8114    
   2861000   2861           445.69588     -18281.278      10485.045      146.15135      158.29361      49.052585      2436.8114    
   2862000   2862           447.49246     -18282.248      10488.755      156.8801       158.29311      49.052585      2436.8114    
   2863000   2863           452.83148     -18263.01       10492.144      159.479        158.29353      49.052585      2436.8114    
   2864000   2864           452.64083     -18270.968      10495.686      165.25625      158.29596      49.052585      2436.8114    
   2865000   2865           451.3809      -18278.342      10499.329      157.35467      158.29563      49.052585      2436.8114    
   2866000   2866           451.80929     -18272.879      10502.999      157.73057      158.29543      49.052585      2436.8114    
   2867000   2867           449.82251     -18273.795      10506.465      172.11587      158.30025      49.052585      2436.8114    
   2868000   2868           444.92513     -18283.053      10510.411      149.96949      158.29735      49.052585      2436.8114    
   2869000   2869           452.72256     -18267.788      10513.913      168.96164      158.30106      49.052585      2436.8114    
   2870000   2870           444.72105     -18282.052      10517.774      179.31542      158.30838      49.052585      2436.8114    
   2871000   2871           450.91653     -18276.821      10521.343      162.49804      158.30984      49.052585      2436.8114    
   2872000   2872           456.69924     -18265.147      10525.25       153.87727      158.3083       49.052585      2436.8114    
   2873000   2873           449.98758     -18276.845      10528.828      152.08988      158.30614      49.052585      2436.8114    
   2874000   2874           449.64552     -18283.319      10532.651      164.86244      158.30842      49.052585      2436.8114    
   2875000   2875           451.34932     -18273.725      10536.101      158.42075      158.30846      49.052585      2436.8114    
   2876000   2876           451.09978     -18280.004      10539.768      169.28474      158.31227      49.052585      2436.8114    
   2877000   2877           456.81174     -18258.164      10543.565      163.70289      158.31414      49.052585      2436.8114    
   2878000   2878           452.41236     -18268.643      10546.858      175.17443      158.32         49.052585      2436.8114    
   2879000   2879           441.97838     -18292.517      10550.645      165.55025      158.32251      49.052585      2436.8114    
   2880000   2880           455.78746     -18267.605      10554.221      161.98246      158.32378      49.052585      2436.8114    
   2881000   2881           451.17176     -18277.326      10557.889      165.97021      158.32643      49.052585      2436.8114    
   2882000   2882           446.34479     -18282.091      10561.626      152.68034      158.32448      49.052585      2436.8114    
   2883000   2883           456.18368     -18268.16       10565.382      155.8685       158.32362      49.052585      2436.8114    
   2884000   2884           446.94181     -18289.462      10569.25       158.26427      158.3236       49.052585      2436.8114    
   2885000   2885           450.19918     -18276.362      10573.07       160.8145       158.32447      49.052585      2436.8114    
   2886000   2886           452.7221      -18269.87       10576.838      150.4118       158.32173      49.052585      2436.8114    
   2887000   2887           452.34769     -18276.519      10580.384      161.53079      158.32284      49.052585      2436.8114    
   2888000   2888           453.088       -18265.124      10584.037      155.58941      158.32189      49.052585      2436.8114    
   2889000   2889           454.31683     -18276.375      10587.82       153.08969      158.32008      49.052585      2436.8114    
   2890000   2890           445.98103     -18286.612      10591.45       144.73573      158.31538      49.052585      2436.8114    
   2891000   2891           452.42258     -18266.867      10594.899      158.49815      158.31544      49.052585      2436.8114    
   2892000   2892           449.79136     -18276.669      10598.715      159.8985       158.31599      49.052585      2436.8114    
   2893000   2893           449.63986     -18288.679      10602.227      164.93099      158.31828      49.052585      2436.8114    
   2894000   2894           448.44324     -18271.063      10605.716      149.6309       158.31528      49.052585      2436.8114    
   2895000   2895           444.73137     -18292.262      10609.369      171.48984      158.31983      49.052585      2436.8114    
   2896000   2896           444.11682     -18283.726      10612.999      155.71024      158.31893      49.052585      2436.8114    
   2897000   2897           449.3084      -18283.318      10616.61       157.28086      158.31857      49.052585      2436.8114    
   2898000   2898           448.92769     -18272.18       10620.257      143.79143      158.31356      49.052585      2436.8114    
   2899000   2899           452.44679     -18268.383      10623.835      156.69889      158.313        49.052585      2436.8114    
   2900000   2900           449.74605     -18274.011      10627.666      161.28673      158.31402      49.052585      2436.8114    
   2901000   2901           452.08058     -18281.394      10631.679      160.70348      158.31485      49.052585      2436.8114    
   2902000   2902           454.09352     -18264.876      10635.428      159.9424       158.31541      49.052585      2436.8114    
   2903000   2903           449.77715     -18278.536      10639.522      164.14928      158.31742      49.052585      2436.8114    
   2904000   2904           454.713       -18268.833      10643.142      158.20049      158.31738      49.052585      2436.8114    
   2905000   2905           443.1207      -18292.707      10646.605      165.21084      158.31975      49.052585      2436.8114    
   2906000   2906           450.65352     -18276.479      10650.606      155.58231      158.31881      49.052585      2436.8114    
   2907000   2907           452.38862     -18263.071      10654.227      154.81553      158.3176       49.052585      2436.8114    
   2908000   2908           448.80196     -18272.317      10658.062      164.15974      158.31961      49.052585      2436.8114    
   2909000   2909           453.44439     -18266.782      10661.549      155.18871      158.31853      49.052585      2436.8114    
   2910000   2910           445.12291     -18282.012      10665.144      154.05863      158.31707      49.052585      2436.8114    
   2911000   2911           448.08291     -18267.06       10668.939      168.5077       158.32057      49.052585      2436.8114    
   2912000   2912           453.68256     -18274.412      10672.908      168.85323      158.32419      49.052585      2436.8114    
   2913000   2913           446.01689     -18287.921      10676.399      161.96693      158.32544      49.052585      2436.8114    
   2914000   2914           450.78658     -18273.222      10680.069      159.32435      158.32578      49.052585      2436.8114    
   2915000   2915           448.80826     -18288.883      10683.7        160.04692      158.32637      49.052585      2436.8114    
   2916000   2916           450.53662     -18278.027      10687.25       157.5957       158.32612      49.052585      2436.8114    
   2917000   2917           448.65932     -18277.789      10690.668      157.07384      158.32569      49.052585      2436.8114    
   2918000   2918           439.16756     -18293.675      10694.376      158.35483      158.3257       49.052585      2436.8114    
   2919000   2919           449.03771     -18279.919      10698.172      179.35771      158.3329       49.052585      2436.8114    
   2920000   2920           451.1638      -18272.122      10701.615      158.82958      158.33307      49.052585      2436.8114    
   2921000   2921           449.59617     -18280.111      10705.242      158.99384      158.3333       49.052585      2436.8114    
   2922000   2922           452.65851     -18266.431      10708.864      167.23538      158.33634      49.052585      2436.8114    
   2923000   2923           453.38016     -18277.411      10712.34       160.29714      158.33702      49.052585      2436.8114    
   2924000   2924           445.66463     -18290.036      10715.864      162.18761      158.33833      49.052585      2436.8114    
   2925000   2925           446.72331     -18273.192      10719.457      170.3118       158.34242      49.052585      2436.8114    
   2926000   2926           442.78687     -18284.757      10723.003      162.7181       158.34392      49.052585      2436.8114    
   2927000   2927           450.07306     -18266.857      10726.504      166.72377      158.34678      49.052585      2436.8114    
   2928000   2928           448.97202     -18283.056      10730.108      155.00061      158.34564      49.052585      2436.8114    
   2929000   2929           454.30092     -18265.855      10733.775      162.6044       158.34709      49.052585      2436.8114    
   2930000   2930           444.10596     -18278.204      10737.194      172.27811      158.35184      49.052585      2436.8114    
   2931000   2931           455.08975     -18274.932      10741.024      155.58447      158.3509       49.052585      2436.8114    
   2932000   2932           451.04983     -18266.953      10744.567      161.05672      158.35182      49.052585      2436.8114    
   2933000   2933           449.68033     -18276.025      10748.021      185.19112      158.36097      49.052585      2436.8114    
   2934000   2934           447.79173     -18278.599      10751.932      177.84075      158.36761      49.052585      2436.8114    
   2935000   2935           452.65784     -18267.505      10755.359      156.45038      158.36696      49.052585      2436.8114    
   2936000   2936           452.24301     -18265.602      10758.93       159.82559      158.36745      49.052585      2436.8114    
   2937000   2937           452.9908      -18272.241      10762.621      158.11225      158.36736      49.052585      2436.8114    
   2938000   2938           452.09907     -18274.729      10766.443      160.73199      158.36817      49.052585      2436.8114    
   2939000   2939           446.74192     -18276.81       10770.424      162.84018      158.36969      49.052585      2436.8114    
   2940000   2940           450.87238     -18263.739      10773.895      172.58302      158.37452      49.052585      2436.8114    
   2941000   2941           450.0909      -18268.78       10777.655      161.32535      158.37553      49.052585      2436.8114    
   2942000   2942           451.62744     -18272.926      10781.2        173.77791      158.38076      49.052585      2436.8114    
   2943000   2943           449.25342     -18278.205      10784.848      170.72806      158.38495      49.052585      2436.8114    
   2944000   2944           455.18877     -18266.655      10788.546      155.03641      158.38382      49.052585      2436.8114    
   2945000   2945           448.03653     -18278.339      10792.454      171.19653      158.38817      49.052585      2436.8114    
   2946000   2946           450.69923     -18267.941      10796.183      159.63884      158.38859      49.052585      2436.8114    
   2947000   2947           452.4381      -18269.754      10799.579      153.72411      158.38701      49.052585      2436.8114    
   2948000   2948           447.64408     -18276.949      10803.069      157.49731      158.38671      49.052585      2436.8114    
   2949000   2949           455.24301     -18257.213      10806.367      145.84617      158.38246      49.052585      2436.8114    
   2950000   2950           450.02031     -18276.198      10809.919      145.22756      158.378        49.052585      2436.8114    
   2951000   2951           442.8244      -18291.552      10813.538      152.59147      158.37604      49.052585      2436.8114    
   2952000   2952           452.13034     -18272.283      10817.102      157.73659      158.37582      49.052585      2436.8114    
   2953000   2953           448.19236     -18272.699      10820.667      151.87004      158.37362      49.052585      2436.8114    
   2954000   2954           449.84932     -18278.51       10824.375      169.33035      158.37733      49.052585      2436.8114    
   2955000   2955           447.24904     -18286.077      10827.961      176.21609      158.38336      49.052585      2436.8114    
   2956000   2956           451.70486     -18268.09       10831.555      161.96155      158.38457      49.052585      2436.8114    
   2957000   2957           445.91496     -18278.938      10835.19       170.45843      158.38865      49.052585      2436.8114    
   2958000   2958           448.16803     -18273.32       10838.991      164.02315      158.39056      49.052585      2436.8114    
   2959000   2959           454.83679     -18261.65       10842.979      153.75903      158.38899      49.052585      2436.8114    
   2960000   2960           450.20315     -18281.062      10846.665      157.5038       158.38869      49.052585      2436.8114    
   2961000   2961           447.91897     -18282.495      10850.12       163.89312      158.39055      49.052585      2436.8114    
   2962000   2962           448.14377     -18270.115      10853.67       159.01048      158.39076      49.052585      2436.8114    
   2963000   2963           450.50623     -18279.506      10857.545      148.70259      158.38749      49.052585      2436.8114    
   2964000   2964           449.81605     -18285.456      10861.551      149.36255      158.38445      49.052585      2436.8114    
   2965000   2965           445.11089     -18272.299      10865.254      146.42845      158.38042      49.052585      2436.8114    
   2966000   2966           451.81515     -18268.66       10869.012      153.91596      158.37891      49.052585      2436.8114    
   2967000   2967           446.56948     -18285.292      10872.52       149.33234      158.37586      49.052585      2436.8114    
   2968000   2968           450.74177     -18283.026      10875.762      154.22868      158.37447      49.052585      2436.8114    
   2969000   2969           454.7603      -18273.54       10879.464      163.77974      158.37629      49.052585      2436.8114    
   2970000   2970           442.19209     -18302.612      10882.952      160.25132      158.37692      49.052585      2436.8114    
   2971000   2971           448.73699     -18279.793      10886.481      167.02379      158.37983      49.052585      2436.8114    
   2972000   2972           453.16146     -18276.716      10890.085      176.18463      158.38582      49.052585      2436.8114    
   2973000   2973           446.98363     -18289.276      10893.802      166.0947       158.38841      49.052585      2436.8114    
   2974000   2974           450.35023     -18275.043      10897.225      166.29376      158.39107      49.052585      2436.8114    
   2975000   2975           452.0243      -18278.19       10901.001      171.16117      158.39536      49.052585      2436.8114    
   2976000   2976           446.23375     -18274.104      10904.761      172.04311      158.39994      49.052585      2436.8114    
   2977000   2977           450.33865     -18270.025      10908.491      182.96046      158.40819      49.052585      2436.8114    
   2978000   2978           448.19438     -18280.494      10912.173      167.58257      158.41127      49.052585      2436.8114    
   2979000   2979           456.22093     -18259.679      10916.222      154.34208      158.4099       49.052585      2436.8114    
   2980000   2980           450.99029     -18274.592      10919.788      159.25346      158.41019      49.052585      2436.8114    
   2981000   2981           443.29043     -18279.036      10923.272      156.41572      158.40952      49.052585      2436.8114    
   2982000   2982           447.74694     -18284.745      10926.846      155.09626      158.40841      49.052585      2436.8114    
   2983000   2983           456.52027     -18260.733      10930.09       164.29941      158.41038      49.052585      2436.8114    
   2984000   2984           450.73019     -18282.788      10933.404      171.72537      158.41484      49.052585      2436.8114    
   2985000   2985           456.63911     -18261.79       10937.186      158.98251      158.41503      49.052585      2436.8114    
   2986000   2986           451.12148     -18275.508      10940.803      164.06083      158.41692      49.052585      2436.8114    
   2987000   2987           443.99576     -18276.018      10944.491      160.7058       158.41769      49.052585      2436.8114    
   2988000   2988           455.98194     -18264.859      10948.242      153.8427       158.41616      49.052585      2436.8114    
   2989000   2989           453.77005     -18278.08       10951.78       160.9336       158.417        49.052585      2436.8114    
   2990000   2990           450.19385     -18274.533      10955.371      163.58076      158.41873      49.052585      2436.8114    
   2991000   2991           445.96269     -18289.777      10959.084      157.55318      158.41844      49.052585      2436.8114    
   2992000   2992           449.69255     -18283.72       10962.584      148.66966      158.41518      49.052585      2436.8114    
   2993000   2993           449.47164     -18273.03       10966.195      153.85691      158.41366      49.052585      2436.8114    
   2994000   2994           449.21929     -18283.229      10970.14       167.26369      158.41661      49.052585      2436.8114    
   2995000   2995           450.72044     -18274.075      10973.936      168.2565       158.4199       49.052585      2436.8114    
   2996000   2996           447.41501     -18281.908      10977.252      168.76127      158.42335      49.052585      2436.8114    
   2997000   2997           450.9338      -18276.045      10980.709      153.31382      158.42164      49.052585      2436.8114    
   2998000   2998           449.7965      -18277.477      10984.442      144.89564      158.41713      49.052585      2436.8114    
   2999000   2999           458.68608     -18266.813      10988.453      152.79172      158.41526      49.052585      2436.8114    
   3000000   3000           450.80916     -18282.734      10992.502      165.6687       158.41767      49.052585      2436.8114    
Loop time of 15173.5 on 12 procs for 3000000 steps with 12312 atoms

Performance: 17.082 ns/day, 1.405 hours/ns, 197.714 timesteps/s, 2.434 Matom-step/s
96.6% CPU use with 12 MPI tasks x 1 OpenMP threads

MPI task timing breakdown:
Section |  min time  |  avg time  |  max time  |%varavg| %total
---------------------------------------------------------------
Pair    | 8326.7     | 8680.2     | 9069.4     | 302.9 | 57.21
Bond    | 623.82     | 723.66     | 823.03     | 311.4 |  4.77
Kspace  | 3261.3     | 3522.7     | 3759.1     | 272.1 | 23.22
Neigh   | 1428.5     | 1429       | 1429.2     |   0.5 |  9.42
Comm    | 588.91     | 637.77     | 687.17     | 156.2 |  4.20
Output  | 0.17505    | 0.35943    | 0.37668    |   9.3 |  0.00
Modify  | 135.41     | 144.35     | 152.95     |  43.7 |  0.95
Other   |            | 35.4       |            |       |  0.23

Nlocal:           1026 ave        1129 max         917 min
Histogram: 3 1 1 1 0 0 0 2 0 4
Nghost:        7599.83 ave        7699 max        7479 min
Histogram: 3 1 0 1 0 1 0 0 3 3
Neighs:              0 ave           0 max           0 min
Histogram: 12 0 0 0 0 0 0 0 0 0

Total # of neighbors = 0
Ave neighs/atom = 0
Ave special neighs/atom = 8.920078
Neighbor list builds = 134377
Dangerous builds = 0

# variable kappa equal (v_tot_transf_ek/(time)/(v_area)/2.0)*(v_Lb/2.0)/f_aveTdiff
Total wall time: 6:56:57
