reset_timestep 0

# reset the temp_profile, to produce a new data file
fix temp_profile all ave/chunk 10 100 1000 chunkID temp file ${step}.T_profile_${dir}.dat
fix temp_profile all ave/chunk 10 100 1000 chunkID temp file s02_compute_kappa.T_profile_${dir}.dat
fix temp_profile all ave/chunk 10 100 1000 chunkID temp file s02_compute_kappa.T_profile_x.dat

# compute difference in T between central and external layer
variable T_diff equal f_temp_profile[${middleval}][3]-f_temp_profile[1][3]
variable T_diff equal f_temp_profile[11][3]-f_temp_profile[1][3]

# reset fix thermal/conductivity to zero energy accumulation
# fix transf_ek_pC paraffinC thermal/conductivity ${freq} ${dir} ${lnum} swap 1
# fix transf_ek_pH paraffinH thermal/conductivity ${freq} ${dir} ${lnum} swap 1
# fix transf_ek_gC grapheneC thermal/conductivity ${freq} ${dir} ${lnum} swap 1
#variable tot_transf_ek equal f_transf_ek_pC+f_transf_ek_pH+f_transf_ek_gC
fix transf_ek CC thermal/conductivity ${freq} ${dir} ${lnum} swap 3
fix transf_ek CC thermal/conductivity 200 ${dir} ${lnum} swap 3
fix transf_ek CC thermal/conductivity 200 x ${lnum} swap 3
fix transf_ek CC thermal/conductivity 200 x 20 swap 3

fix aveTdiff all ave/time 1 1 1000 v_T_diff ave running

# thermo_style custom step time temp etotal f_transf_ek_pC f_transf_ek_pH f_transf_ek_gC v_tot_transf_ek v_T_diff f_aveTdiff v_Lb v_area
thermo_style custom step time temp etotal f_transf_ek v_T_diff f_aveTdiff v_Lb v_area

run $(v_ns_for_k/0.001/v_dt)
run 3000000
PPPM initialization ...
  using 12-bit tables for long-range coulomb (src/kspace.cpp:342)
  G vector (1/distance) = 0.27690352
  grid = 24 24 24
  stencil order = 5
  estimated absolute RMS force accuracy = 9.0591945e-05
  estimated relative force accuracy = 6.2912624e-06
  using double precision FFTW3
  3d grid and FFT values/proc = 3757 1152
WARNING: Using a manybody potential with bonds/angles/dihedrals and special_bond exclusions (src/pair.cpp:242)
Hybrid pair style last /omp style lj/cut/coul/long
Last active /omp style is kspace_style pppm/omp
WARNING: Inconsistent image flags (src/domain.cpp:815)
Per MPI rank memory allocation (min/avg/max) = 17.78 | 18.1 | 18.55 Mbytes
   Step          Time           Temp          TotEng      f_transf_ek      v_T_diff      f_aveTdiff        v_Lb          v_area    
         0   0              447.19685     -18279.912      0              0              0              50.573233      2363.5408    
      1000   1              452.83077     -18269.934      4.1524473      50.173193      25.086596      50.573233      2363.5408    
      2000   2              447.68511     -18281.977      7.7284265      52.017174      34.063456      50.573233      2363.5408    
      3000   3              452.62039     -18273.676      11.657029      56.504689      39.673764      50.573233      2363.5408    
      4000   4              445.73463     -18288.975      15.410499      40.399318      39.818875      50.573233      2363.5408    
      5000   5              449.00292     -18271.508      19.138209      47.95003       41.174067      50.573233      2363.5408    
      6000   6              451.67232     -18269.076      22.890226      54.252652      43.042437      50.573233      2363.5408    
      7000   7              448.77304     -18274.531      26.367207      54.498202      44.474407      50.573233      2363.5408    
      8000   8              455.00686     -18271.899      30.226339      49.723083      45.057593      50.573233      2363.5408    
      9000   9              450.57182     -18267.976      33.91442       45.767582      45.128592      50.573233      2363.5408    
     10000   10             447.42924     -18269.759      37.633922      38.04103       44.484268      50.573233      2363.5408    
     11000   11             447.94341     -18278.814      41.350055      29.947946      43.272908      50.573233      2363.5408    
     12000   12             452.58579     -18271.321      45.009899      42.030806      43.177362      50.573233      2363.5408    
     13000   13             444.23614     -18289.243      48.977302      43.112207      43.172708      50.573233      2363.5408    
     14000   14             449.76462     -18276.144      52.863781      46.245715      43.377575      50.573233      2363.5408    
     15000   15             452.08553     -18263.895      56.911807      50.045211      43.794302      50.573233      2363.5408    
     16000   16             450.72739     -18280.672      60.722333      44.287917      43.823339      50.573233      2363.5408    
     17000   17             450.60606     -18266.891      64.63474       51.616213      44.256276      50.573233      2363.5408    
     18000   18             450.7446      -18276.679      68.158006      55.81453       44.864605      50.573233      2363.5408    
     19000   19             449.33076     -18272.634      72.470354      60.470912      45.64492       50.573233      2363.5408    
     20000   20             456.1564      -18258.568      76.452576      47.588184      45.737457      50.573233      2363.5408    
     21000   21             448.96155     -18279.081      80.255785      52.426545      46.041506      50.573233      2363.5408    
     22000   22             443.73044     -18279.255      83.595254      50.159845      46.220565      50.573233      2363.5408    
     23000   23             448.18593     -18271.131      87.646072      51.709565      46.449273      50.573233      2363.5408    
     24000   24             450.33711     -18280.786      91.495038      54.240942      46.76094       50.573233      2363.5408    
     25000   25             450.85152     -18274.438      95.255691      58.211412      47.201342      50.573233      2363.5408    
     26000   26             447.08793     -18279.975      99.33856       54.447133      47.469705      50.573233      2363.5408    
     27000   27             448.18038     -18269.853      103.11595      49.298316      47.535013      50.573233      2363.5408    
     28000   28             446.38343     -18282.842      106.55643      61.701761      48.023521      50.573233      2363.5408    
     29000   29             451.18582     -18267.8        110.27565      47.41638       48.003283      50.573233      2363.5408    
     30000   30             440.90303     -18292.997      114.31176      40.127349      47.749221      50.573233      2363.5408    
     31000   31             450.84469     -18268.732      118.43278      35.982527      47.381512      50.573233      2363.5408    
     32000   32             449.08021     -18274.436      122.37753      35.632499      47.025481      50.573233      2363.5408    
     33000   33             451.85876     -18275.526      126.20001      38.524141      46.775441      50.573233      2363.5408    
     34000   34             456.32331     -18269.202      129.75187      46.850454      46.777585      50.573233      2363.5408    
     35000   35             450.73307     -18277.723      133.44771      44.534986      46.71529       50.573233      2363.5408    
     36000   36             444.56823     -18288.942      137.31141      42.096592      46.590461      50.573233      2363.5408    
     37000   37             452.82104     -18264.33       140.72988      47.162347      46.60551       50.573233      2363.5408    
     38000   38             450.11824     -18275.034      144.06467      42.706029      46.505524      50.573233      2363.5408    
     39000   39             453.06979     -18271.688      147.45862      33.478454      46.179847      50.573233      2363.5408    
     40000   40             449.6907      -18264.543      151.32032      36.45135       45.942566      50.573233      2363.5408    
     41000   41             454.05849     -18273.33       154.6984       47.604586      45.982138      50.573233      2363.5408    
     42000   42             443.6465      -18289.383      158.75282      38.559439      45.809517      50.573233      2363.5408    
     43000   43             444.92481     -18279.354      162.57806      47.128104      45.839485      50.573233      2363.5408    
     44000   44             447.34756     -18278.656      166.53009      55.227983      46.048119      50.573233      2363.5408    
     45000   45             451.44287     -18268.153      170.26745      39.333121      45.90214       50.573233      2363.5408    
     46000   46             456.51208     -18265.84       174.23024      49.779026      45.984627      50.573233      2363.5408    
     47000   47             455.95371     -18267.459      177.89567      57.468913      46.223883      50.573233      2363.5408    
     48000   48             447.43532     -18275.524      181.81402      54.982827      46.402637      50.573233      2363.5408    
     49000   49             447.4353      -18271.567      185.3141       49.320528      46.460995      50.573233      2363.5408    
     50000   50             451.37954     -18276.477      189.11264      60.174252      46.729882      50.573233      2363.5408    
     51000   51             448.98658     -18281.888      192.95234      66.089289      47.102179      50.573233      2363.5408    
     52000   52             445.72127     -18271.803      196.50678      69.658299      47.527766      50.573233      2363.5408    
     53000   53             454.0561      -18262.448      200.57838      60.520972      47.768381      50.573233      2363.5408    
     54000   54             452.67476     -18282.331      204.13108      64.937197      48.080541      50.573233      2363.5408    
     55000   55             451.36824     -18276.616      208.2178       53.404625      48.175614      50.573233      2363.5408    
     56000   56             452.28274     -18272.566      211.69592      65.345882      48.476847      50.573233      2363.5408    
     57000   57             451.17589     -18274.221      215.81119      56.765221      48.61975       50.573233      2363.5408    
     58000   58             451.92847     -18254.532      219.8135       67.389377      48.937879      50.573233      2363.5408    
     59000   59             445.66803     -18272.174      223.39352      60.973232      49.138468      50.573233      2363.5408    
     60000   60             459.37712     -18250.494      227.0694       55.782182      49.247382      50.573233      2363.5408    
     61000   61             445.75833     -18276.265      231.11905      69.580261      49.575331      50.573233      2363.5408    
     62000   62             451.62392     -18271.486      234.75177      60.873496      49.754667      50.573233      2363.5408    
     63000   63             453.70811     -18273.411      238.49587      46.801623      49.708526      50.573233      2363.5408    
     64000   64             444.56135     -18282.089      242.22019      61.069586      49.883311      50.573233      2363.5408    
     65000   65             447.62879     -18275.28       245.87682      63.774979      50.093791      50.573233      2363.5408    
     66000   66             456.08534     -18256.893      249.44561      53.396928      50.143092      50.573233      2363.5408    
     67000   67             449.18945     -18265.524      253.0198       45.836872      50.079765      50.573233      2363.5408    
     68000   68             450.69673     -18279.502      256.61473      47.477886      50.042057      50.573233      2363.5408    
     69000   69             450.01436     -18263.387      260.25925      47.911976      50.011627      50.573233      2363.5408    
     70000   70             448.64488     -18279.024      263.90596      33.657465      49.781287      50.573233      2363.5408    
     71000   71             451.46775     -18273.244      267.89422      40.883323      49.657704      50.573233      2363.5408    
     72000   72             450.41788     -18273.948      271.77073      57.889669      49.77047       50.573233      2363.5408    
     73000   73             457.43009     -18254.362      275.4522       63.940139      49.961952      50.573233      2363.5408    
     74000   74             449.03091     -18274.196      279.12057      59.127924      50.084165      50.573233      2363.5408    
     75000   75             451.65562     -18280.671      282.90919      56.855243      50.173259      50.573233      2363.5408    
     76000   76             454.22934     -18262.912      286.87324      71.363865      50.448461      50.573233      2363.5408    
     77000   77             450.55478     -18275.69       290.20769      64.873778      50.633401      50.573233      2363.5408    
     78000   78             454.09227     -18269.616      293.87344      70.223646      50.881379      50.573233      2363.5408    
     79000   79             449.75916     -18263.355      297.63375      62.200721      51.022871      50.573233      2363.5408    
     80000   80             443.65056     -18282.867      301.18939      63.005455      51.170804      50.573233      2363.5408    
     81000   81             456.60914     -18265.82       305.01469      61.481417      51.296543      50.573233      2363.5408    
     82000   82             453.47697     -18270.386      308.81966      68.814686      51.507605      50.573233      2363.5408    
     83000   83             443.97862     -18290.145      312.8029       64.662934      51.664216      50.573233      2363.5408    
     84000   84             450.00409     -18262.825      316.95677      52.145294      51.669876      50.573233      2363.5408    
     85000   85             445.52112     -18276.34       321.08152      44.439839      51.585806      50.573233      2363.5408    
     86000   86             451.70311     -18261.313      324.91942      38.688891      51.437565      50.573233      2363.5408    
     87000   87             447.94149     -18270.687      328.37525      57.234799      51.503443      50.573233      2363.5408    
     88000   88             451.46791     -18274.859      331.81638      64.241136      51.646563      50.573233      2363.5408    
     89000   89             453.61015     -18262.292      335.63577      55.626154      51.690781      50.573233      2363.5408    
     90000   90             452.12885     -18274.815      339.43617      54.87595       51.725783      50.573233      2363.5408    
     91000   91             448.18571     -18275.133      343.49485      55.747938      51.769502      50.573233      2363.5408    
     92000   92             455.70671     -18259.887      347.13092      47.820748      51.727042      50.573233      2363.5408    
     93000   93             451.03428     -18275.953      351.05026      49.198167      51.700139      50.573233      2363.5408    
     94000   94             448.22118     -18279.675      354.65771      51.690011      51.700032      50.573233      2363.5408    
     95000   95             448.09338     -18271.768      358.52364      50.006417      51.682391      50.573233      2363.5408    
     96000   96             446.98997     -18271.368      362.71186      53.882967      51.705077      50.573233      2363.5408    
     97000   97             452.97095     -18270.82       366.3245       57.546648      51.764685      50.573233      2363.5408    
     98000   98             450.30652     -18274.005      370.30261      46.681107      51.713336      50.573233      2363.5408    
     99000   99             453.36772     -18278.393      374.3208       47.039313      51.666595      50.573233      2363.5408    
    100000   100            451.20223     -18271.076      377.95721      56.228555      51.711763      50.573233      2363.5408    
    101000   101            452.91629     -18267.991      381.82596      48.664483      51.681888      50.573233      2363.5408    
    102000   102            450.63989     -18279.55       385.752        44.520137      51.612356      50.573233      2363.5408    
    103000   103            447.72482     -18269.132      389.82443      35.630483      51.458684      50.573233      2363.5408    
    104000   104            446.29674     -18283.959      393.55587      36.184246      51.313214      50.573233      2363.5408    
    105000   105            448.46677     -18270.555      397.4747       34.212007      51.151882      50.573233      2363.5408    
    106000   106            450.41377     -18276.37       401.4153       35.16927       51.002511      50.573233      2363.5408    
    107000   107            447.30708     -18276.83       405.80507      41.569192      50.915166      50.573233      2363.5408    
    108000   108            456.10387     -18256.579      409.56511      42.262213      50.835781      50.573233      2363.5408    
    109000   109            449.07635     -18280.684      413.32804      42.76214       50.762384      50.573233      2363.5408    
    110000   110            451.14696     -18287.842      417.46326      42.327646      50.686396      50.573233      2363.5408    
    111000   111            447.21949     -18270.571      421.57725      36.253747      50.557533      50.573233      2363.5408    
    112000   112            449.08926     -18277.126      425.35513      41.713806      50.479269      50.573233      2363.5408    
    113000   113            454.83729     -18263.483      429.01228      38.288266      50.372331      50.573233      2363.5408    
    114000   114            449.54388     -18275.47       432.6208       47.299138      50.345607      50.573233      2363.5408    
    115000   115            454.74133     -18266.687      436.53858      46.499044      50.312447      50.573233      2363.5408    
    116000   116            452.34817     -18277.389      440.25433      39.178457      50.217285      50.573233      2363.5408    
    117000   117            446.9886      -18280.045      444.11386      25.922281      50.011395      50.573233      2363.5408    
    118000   118            452.41006     -18267.702      447.76074      24.833664      49.799818      50.573233      2363.5408    
    119000   119            445.47423     -18278.262      451.34055      40.183531      49.719682      50.573233      2363.5408    
    120000   120            451.28649     -18269.375      454.86902      41.169498      49.649019      50.573233      2363.5408    
    121000   121            450.98687     -18271.112      458.81388      43.54401       49.598978      50.573233      2363.5408    
    122000   122            450.12838     -18278.117      462.47175      38.992898      49.51275       50.573233      2363.5408    
    123000   123            448.32888     -18278.661      466.46781      41.293466      49.446465      50.573233      2363.5408    
    124000   124            448.30065     -18278.822      470.25424      29.882017      49.28995       50.573233      2363.5408    
    125000   125            445.56373     -18276.436      474.1787       25.662181      49.102428      50.573233      2363.5408    
    126000   126            449.99981     -18267.095      478.0388       30.111205      48.952891      50.573233      2363.5408    
    127000   127            443.02465     -18285.386      481.86927      35.469096      48.847548      50.573233      2363.5408    
    128000   128            452.14482     -18269.345      485.30082      48.666792      48.846147      50.573233      2363.5408    
    129000   129            447.51291     -18279.132      489.36641      38.09956       48.763481      50.573233      2363.5408    
    130000   130            452.23172     -18261.945      493.35668      45.3867        48.737704      50.573233      2363.5408    
    131000   131            447.66496     -18279.023      497.41168      39.401109      48.666972      50.573233      2363.5408    
    132000   132            456.46763     -18262.431      501.63279      39.989335      48.601727      50.573233      2363.5408    
    133000   133            447.79751     -18280.153      505.35564      38.40438       48.525627      50.573233      2363.5408    
    134000   134            448.22782     -18267.863      509.40256      42.878004      48.483793      50.573233      2363.5408    
    135000   135            453.37742     -18267.875      513.45778      42.505171      48.439833      50.573233      2363.5408    
    136000   136            447.63        -18280.32       517.18219      43.694675      48.405197      50.573233      2363.5408    
    137000   137            450.5453      -18269.867      521.06486      37.699279      48.327617      50.573233      2363.5408    
    138000   138            444.21616     -18291.147      525.21255      25.115418      48.160623      50.573233      2363.5408    
    139000   139            450.15524     -18272.163      529.00859      36.917008      48.080312      50.573233      2363.5408    
    140000   140            448.12949     -18277          532.81251      36.836017      48.000565      50.573233      2363.5408    
    141000   141            449.55099     -18264.657      536.43769      45.517058      47.983075      50.573233      2363.5408    
    142000   142            448.48536     -18274.256      540.31644      46.51442       47.972805      50.573233      2363.5408    
    143000   143            449.03665     -18281.039      544.4893       39.692323      47.915302      50.573233      2363.5408    
    144000   144            448.5875      -18271.959      548.39291      39.736825      47.858898      50.573233      2363.5408    
    145000   145            447.48961     -18287.853      552.56287      44.247266      47.834161      50.573233      2363.5408    
    146000   146            453.20962     -18275.933      556.43526      34.062119      47.740474      50.573233      2363.5408    
    147000   147            453.50218     -18264.974      560.39648      35.930863      47.660679      50.573233      2363.5408    
    148000   148            450.48312     -18271.629      564.24939      33.469039      47.565433      50.573233      2363.5408    
    149000   149            452.33435     -18264.63       567.69875      36.635682      47.492568      50.573233      2363.5408    
    150000   150            444.82258     -18282.84       571.3913       37.547336      47.426706      50.573233      2363.5408    
    151000   151            453.90513     -18266.54       575.52227      44.834162      47.40965       50.573233      2363.5408    
    152000   152            447.86946     -18278.56       579.23263      38.302147      47.350123      50.573233      2363.5408    
    153000   153            450.89652     -18269.766      583.21634      37.492386      47.286112      50.573233      2363.5408    
    154000   154            445.09577     -18286.172      587.45482      26.44777       47.151671      50.573233      2363.5408    
    155000   155            449.75459     -18273.484      591.41955      41.911382      47.11808       50.573233      2363.5408    
    156000   156            452.81695     -18275.177      595.0709       48.206173      47.12501       50.573233      2363.5408    
    157000   157            445.49286     -18291.731      598.81419      36.36706       47.056922      50.573233      2363.5408    
    158000   158            447.093       -18277.682      602.16189      25.18924       46.919389      50.573233      2363.5408    
    159000   159            452.22405     -18267.335      605.67981      38.42354       46.86629       50.573233      2363.5408    
    160000   160            449.74089     -18280.13       609.47095      41.230672      46.831286      50.573233      2363.5408    
    161000   161            441.91347     -18290.209      613.03477      42.696835      46.805765      50.573233      2363.5408    
    162000   162            446.86148     -18276.004      616.59916      40.100262      46.764627      50.573233      2363.5408    
    163000   163            450.57335     -18271.655      620.3736       34.949695      46.692585      50.573233      2363.5408    
    164000   164            450.26104     -18279.299      623.97882      38.573961      46.643381      50.573233      2363.5408    
    165000   165            450.47802     -18273.661      628.29404      26.683264      46.523139      50.573233      2363.5408    
    166000   166            449.29835     -18268.536      631.71815      38.296964      46.473881      50.573233      2363.5408    
    167000   167            448.76725     -18289.221      635.76417      37.858228      46.422597      50.573233      2363.5408    
    168000   168            453.85947     -18268.023      639.59925      53.598696      46.465059      50.573233      2363.5408    
    169000   169            449.58763     -18275.902      643.66278      47.881427      46.473391      50.573233      2363.5408    
    170000   170            446.09157     -18280.918      647.49663      43.751172      46.457471      50.573233      2363.5408    
    171000   171            449.36804     -18278.821      651.43113      34.48137       46.387843      50.573233      2363.5408    
    172000   172            450.28603     -18273.249      655.40541      51.25707       46.415989      50.573233      2363.5408    
    173000   173            444.78788     -18297.332      659.0931       51.367833      46.444448      50.573233      2363.5408    
    174000   174            452.09322     -18270.647      662.8769       28.257492      46.340522      50.573233      2363.5408    
    175000   175            443.32582     -18288.525      666.75551      31.008822      46.25341       50.573233      2363.5408    
    176000   176            451.40572     -18268.112      670.65718      32.664915      46.176639      50.573233      2363.5408    
    177000   177            450.99751     -18277.4        674.92701      40.725348      46.146014      50.573233      2363.5408    
    178000   178            445.23417     -18284.801      678.92094      44.734079      46.138126      50.573233      2363.5408    
    179000   179            452.3084      -18266.076      682.88843      37.036654      46.087562      50.573233      2363.5408    
    180000   180            451.86865     -18278.517      686.76878      52.230065      46.121499      50.573233      2363.5408    
    181000   181            450.90446     -18259.888      690.25056      55.10279       46.170846      50.573233      2363.5408    
    182000   182            451.13862     -18276.104      693.7507       58.375158      46.237537      50.573233      2363.5408    
    183000   183            448.16478     -18280.553      697.37788      44.037946      46.225582      50.573233      2363.5408    
    184000   184            445.39318     -18281.31       700.83436      58.690188      46.292959      50.573233      2363.5408    
    185000   185            449.8387      -18274.487      704.63377      49.875637      46.31222       50.573233      2363.5408    
    186000   186            457.953       -18262.673      708.85096      50.016448      46.332029      50.573233      2363.5408    
    187000   187            446.78407     -18278.065      712.60777      39.124107      46.293689      50.573233      2363.5408    
    188000   188            451.27537     -18283.108      716.13304      37.601853      46.247701      50.573233      2363.5408    
    189000   189            451.57372     -18270.483      720.23792      53.877213      46.287856      50.573233      2363.5408    
    190000   190            453.27426     -18268.051      723.77244      53.569381      46.325979      50.573233      2363.5408    
    191000   191            446.46797     -18281.94       727.6376       51.151594      46.351112      50.573233      2363.5408    
    192000   192            453.90332     -18272.259      731.39218      43.74966       46.337633      50.573233      2363.5408    
    193000   193            451.03435     -18269.657      735.02545      47.445302      46.343343      50.573233      2363.5408    
    194000   194            445.02417     -18277.155      738.97826      52.660351      46.375738      50.573233      2363.5408    
    195000   195            452.13766     -18262.077      742.69693      46.038615      46.374018      50.573233      2363.5408    
    196000   196            451.5163      -18270.248      746.76206      55.503052      46.420358      50.573233      2363.5408    
    197000   197            445.28978     -18291.453      751.12445      39.725344      46.386545      50.573233      2363.5408    
    198000   198            450.92017     -18274.923      755.10065      42.343803      46.36623       50.573233      2363.5408    
    199000   199            447.43882     -18271.123      759.18407      32.384993      46.296324      50.573233      2363.5408    
    200000   200            453.3936      -18275.749      762.85578      38.765366      46.258856      50.573233      2363.5408    
    201000   201            456.18752     -18268.19       766.64405      49.023062      46.27254       50.573233      2363.5408    
    202000   202            450.81227     -18274.3        770.37375      37.070625      46.227211      50.573233      2363.5408    
    203000   203            446.22089     -18288.517      774.38606      35.877994      46.176479      50.573233      2363.5408    
    204000   204            452.14492     -18269.497      778.1492       30.242566      46.098753      50.573233      2363.5408    
    205000   205            446.72093     -18280.057      782.10247      39.048376      46.064528      50.573233      2363.5408    
    206000   206            450.41195     -18278.294      785.46956      42.526205      46.047434      50.573233      2363.5408    
    207000   207            449.83474     -18274.337      789.27734      50.329865      46.068023      50.573233      2363.5408    
    208000   208            450.50595     -18277.06       792.93774      28.146255      45.982273      50.573233      2363.5408    
    209000   209            449.39572     -18283.862      796.73614      32.370027      45.917453      50.573233      2363.5408    
    210000   210            449.47951     -18281.519      800.41129      39.378317      45.886461      50.573233      2363.5408    
    211000   211            447.69168     -18272.184      804.24584      30.73779       45.815005      50.573233      2363.5408    
    212000   212            446.85233     -18282.287      807.66426      25.357228      45.71896       50.573233      2363.5408    
    213000   213            446.93124     -18285.912      811.04661      32.812146      45.658647      50.573233      2363.5408    
    214000   214            455.43608     -18264.742      814.82596      34.064331      45.60472       50.573233      2363.5408    
    215000   215            452.03961     -18280.841      818.41568      35.042503      45.555821      50.573233      2363.5408    
    216000   216            451.86281     -18274.339      822.06352      34.973656      45.507055      50.573233      2363.5408    
    217000   217            446.04326     -18280.304      825.68276      43.510572      45.497897      50.573233      2363.5408    
    218000   218            446.23713     -18283.736      829.47732      47.084906      45.505144      50.573233      2363.5408    
    219000   219            458.52999     -18258.352      833.21221      47.956082      45.516284      50.573233      2363.5408    
    220000   220            451.20112     -18267.285      836.98348      51.724228      45.544375      50.573233      2363.5408    
    221000   221            448.62551     -18281.335      841.17949      53.270953      45.579179      50.573233      2363.5408    
    222000   222            446.63286     -18271.597      844.96624      61.107594      45.648813      50.573233      2363.5408    
    223000   223            446.65773     -18282.337      848.78978      45.105107      45.646386      50.573233      2363.5408    
    224000   224            448.01244     -18289.508      852.85973      45.893143      45.647483      50.573233      2363.5408    
    225000   225            450.10502     -18273.787      856.70315      58.298697      45.703462      50.573233      2363.5408    
    226000   226            443.32322     -18283.994      860.3865       56.111931      45.749314      50.573233      2363.5408    
    227000   227            450.59219     -18274.567      864.57021      45.214092      45.746966      50.573233      2363.5408    
    228000   228            449.88574     -18278.721      868.39249      40.056506      45.722117      50.573233      2363.5408    
    229000   229            451.18122     -18282.184      872.32625      52.381457      45.751071      50.573233      2363.5408    
    230000   230            450.64367     -18276.698      876.02214      33.663028      45.698742      50.573233      2363.5408    
    231000   231            450.39337     -18272.801      880.23051      40.946611      45.678258      50.573233      2363.5408    
    232000   232            451.90971     -18263.586      884.14201      52.087057      45.705764      50.573233      2363.5408    
    233000   233            451.10746     -18276.507      887.92356      47.957393      45.715386      50.573233      2363.5408    
    234000   234            445.53227     -18290.906      891.54776      41.074593      45.695638      50.573233      2363.5408    
    235000   235            450.51891     -18268.365      895.44588      54.052303      45.731048      50.573233      2363.5408    
    236000   236            450.47159     -18275.514      899.7846       53.67629       45.764572      50.573233      2363.5408    
    237000   237            454.07957     -18265.9        903.53883      49.110451      45.77863       50.573233      2363.5408    
    238000   238            450.10403     -18278.667      907.30378      43.736268      45.770085      50.573233      2363.5408    
    239000   239            444.73592     -18280.37       910.83033      51.500526      45.793962      50.573233      2363.5408    
    240000   240            460.73277     -18266.194      914.60301      41.172556      45.774786      50.573233      2363.5408    
    241000   241            450.4591      -18274.403      918.28024      40.453281      45.752796      50.573233      2363.5408    
    242000   242            451.51217     -18280.17       922.41798      49.083661      45.766503      50.573233      2363.5408    
    243000   243            456.52928     -18266.171      926.25904      37.590838      45.732996      50.573233      2363.5408    
    244000   244            449.5595      -18281.386      929.87763      42.410295      45.719434      50.573233      2363.5408    
    245000   245            449.22122     -18271.585      933.70016      38.700369      45.690902      50.573233      2363.5408    
    246000   246            448.33181     -18277.648      937.61945      42.45534       45.677802      50.573233      2363.5408    
    247000   247            446.73854     -18277.674      941.77856      43.506589      45.669047      50.573233      2363.5408    
    248000   248            455.22352     -18267.336      945.38164      48.294708      45.679592      50.573233      2363.5408    
    249000   249            449.60646     -18274.019      949.34267      47.304168      45.68609       50.573233      2363.5408    
    250000   250            446.32367     -18280.576      953.24753      58.22846       45.73606       50.573233      2363.5408    
    251000   251            450.41385     -18261.226      956.728        50.31612       45.754235      50.573233      2363.5408    
    252000   252            451.306       -18270.405      960.6163       61.488415      45.816425      50.573233      2363.5408    
    253000   253            449.58511     -18284.667      964.14448      43.690657      45.808056      50.573233      2363.5408    
    254000   254            448.74962     -18271.373      967.92062      33.441368      45.759559      50.573233      2363.5408    
    255000   255            448.59952     -18277.486      971.85844      49.487518      45.774122      50.573233      2363.5408    
    256000   256            454.74668     -18273.376      975.5043       53.96308       45.805985      50.573233      2363.5408    
    257000   257            451.75998     -18269.279      979.47432      52.243287      45.830936      50.573233      2363.5408    
    258000   258            455.32083     -18262.889      983.63373      43.111127      45.820435      50.573233      2363.5408    
    259000   259            452.38572     -18279.845      987.46036      50.49878       45.838429      50.573233      2363.5408    
    260000   260            451.56665     -18274.77       990.77133      50.208824      45.855173      50.573233      2363.5408    
    261000   261            451.61245     -18286.474      994.38957      41.495636      45.838534      50.573233      2363.5408    
    262000   262            452.88282     -18274.047      998.48615      30.170521      45.77896       50.573233      2363.5408    
    263000   263            449.9207      -18274.838      1002.1459      48.789184      45.790362      50.573233      2363.5408    
    264000   264            446.8225      -18289.777      1005.7745      42.122829      45.776522      50.573233      2363.5408    
    265000   265            449.69182     -18273.323      1009.4702      50.61892       45.794727      50.573233      2363.5408    
    266000   266            449.93065     -18277.479      1013.3574      57.985553      45.840385      50.573233      2363.5408    
    267000   267            450.28225     -18272.308      1017.2831      43.096438      45.830147      50.573233      2363.5408    
    268000   268            443.50076     -18282.434      1021.3989      44.971408      45.826954      50.573233      2363.5408    
    269000   269            451.45958     -18270.01       1025.4217      46.62807       45.829922      50.573233      2363.5408    
    270000   270            449.71785     -18277.2        1029.1485      59.294061      45.879605      50.573233      2363.5408    
    271000   271            448.56102     -18276.142      1032.6653      49.066976      45.891323      50.573233      2363.5408    
    272000   272            457.0447      -18266.708      1036.8366      41.998988      45.877065      50.573233      2363.5408    
    273000   273            451.89869     -18274.984      1040.7204      50.609605      45.894337      50.573233      2363.5408    
    274000   274            446.80153     -18272.727      1044.1548      44.72765       45.890095      50.573233      2363.5408    
    275000   275            448.23471     -18284.575      1047.5381      45.432491      45.888437      50.573233      2363.5408    
    276000   276            443.125       -18288.154      1051.0683      60.36299       45.940692      50.573233      2363.5408    
    277000   277            446.72811     -18279.486      1054.9613      45.236423      45.938158      50.573233      2363.5408    
    278000   278            443.56316     -18285.494      1058.4047      45.768605      45.937551      50.573233      2363.5408    
    279000   279            448.5068      -18274.657      1062.0382      47.032875      45.941462      50.573233      2363.5408    
    280000   280            448.2038      -18280.109      1065.8672      51.520397      45.961316      50.573233      2363.5408    
    281000   281            447.33307     -18285.697      1069.7154      34.166779      45.919492      50.573233      2363.5408    
    282000   282            449.65399     -18276.338      1073.4374      29.778752      45.862457      50.573233      2363.5408    
    283000   283            450.52551     -18270.165      1077.2405      43.904085      45.855562      50.573233      2363.5408    
    284000   284            447.72386     -18279.48       1081.0827      51.876509      45.876688      50.573233      2363.5408    
    285000   285            447.57222     -18283.718      1084.9785      41.172416      45.860239      50.573233      2363.5408    
    286000   286            452.20698     -18277.736      1088.5031      51.759824      45.880795      50.573233      2363.5408    
    287000   287            451.93391     -18271.153      1092.2481      50.985359      45.898519      50.573233      2363.5408    
    288000   288            448.04638     -18286.232      1095.7694      40.20338       45.878813      50.573233      2363.5408    
    289000   289            446.33874     -18285.797      1099.6052      33.02131       45.834477      50.573233      2363.5408    
    290000   290            455.93867     -18265.564      1103.4175      29.939618      45.779855      50.573233      2363.5408    
    291000   291            448.99426     -18269.209      1107.5929      42.135104      45.767373      50.573233      2363.5408    
    292000   292            456.07248     -18266.748      1111.6098      37.877047      45.740444      50.573233      2363.5408    
    293000   293            449.67133     -18269.233      1115.6067      27.643996      45.678891      50.573233      2363.5408    
    294000   294            454.79153     -18275.412      1119.113       50.132419      45.693988      50.573233      2363.5408    
    295000   295            452.78905     -18268.471      1122.8092      39.135831      45.671832      50.573233      2363.5408    
    296000   296            450.72365     -18279.284      1126.8162      39.496412      45.651039      50.573233      2363.5408    
    297000   297            451.07727     -18274.856      1130.8104      39.718852      45.631133      50.573233      2363.5408    
    298000   298            450.86761     -18270.996      1134.5933      45.633324      45.63114       50.573233      2363.5408    
    299000   299            445.60524     -18276.901      1138.4255      28.865655      45.575255      50.573233      2363.5408    
    300000   300            456.9193      -18258.892      1142.1708      32.487757      45.531775      50.573233      2363.5408    
    301000   301            454.01002     -18268.083      1145.7287      26.557209      45.468945      50.573233      2363.5408    
    302000   302            444.09531     -18276.703      1149.9016      24.322597      45.399155      50.573233      2363.5408    
    303000   303            449.91305     -18286.106      1154.1701      31.494673      45.353417      50.573233      2363.5408    
    304000   304            451.10237     -18270.85       1157.6986      43.969256      45.348879      50.573233      2363.5408    
    305000   305            454.2139      -18264.548      1161.6349      41.496525      45.336289      50.573233      2363.5408    
    306000   306            445.28395     -18278.848      1165.5486      32.662064      45.295005      50.573233      2363.5408    
    307000   307            453.13028     -18264.44       1169.0481      31.717463      45.250922      50.573233      2363.5408    
    308000   308            451.09483     -18264.89       1172.5747      28.603835      45.197048      50.573233      2363.5408    
    309000   309            451.17133     -18275.786      1176.1767      32.779055      45.15699       50.573233      2363.5408    
    310000   310            447.65949     -18281.486      1180.0135      39.19331       45.137814      50.573233      2363.5408    
    311000   311            453.86456     -18267.762      1184.169       23.836792      45.069542      50.573233      2363.5408    
    312000   312            443.24335     -18287.678      1187.8715      19.448497      44.987686      50.573233      2363.5408    
    313000   313            450.79104     -18274.924      1191.3619      22.4763        44.915993      50.573233      2363.5408    
    314000   314            454.81192     -18265.213      1195.1758      17.213346      44.828048      50.573233      2363.5408    
    315000   315            445.75737     -18282.517      1199.1058      36.603302      44.802021      50.573233      2363.5408    
    316000   316            456.5214      -18271.716      1202.9757      44.005635      44.799508      50.573233      2363.5408    
    317000   317            453.55501     -18278.242      1207.2517      33.097494      44.76271       50.573233      2363.5408    
    318000   318            447.77719     -18269.65       1210.816       26.494764      44.705443      50.573233      2363.5408    
    319000   319            445.85184     -18279.133      1215.3378      41.194262      44.694471      50.573233      2363.5408    
    320000   320            442.31026     -18279.212      1218.8434      21.770911      44.623058      50.573233      2363.5408    
    321000   321            451.84662     -18269.539      1222.4698      38.479335      44.603978      50.573233      2363.5408    
    322000   322            449.85678     -18268.966      1226.1087      31.472211      44.563322      50.573233      2363.5408    
    323000   323            447.0983      -18282.194      1229.5006      47.891186      44.573594      50.573233      2363.5408    
    324000   324            447.01129     -18275.734      1233.6567      45.440332      44.57626       50.573233      2363.5408    
    325000   325            450.68278     -18284.179      1237.3176      50.989891      44.595934      50.573233      2363.5408    
    326000   326            455.40625     -18271.891      1241.2123      47.183988      44.603849      50.573233      2363.5408    
    327000   327            449.55048     -18279.899      1244.8405      40.430519      44.591125      50.573233      2363.5408    
    328000   328            447.34614     -18279.874      1248.5043      31.258883      44.550602      50.573233      2363.5408    
    329000   329            456.57837     -18263.212      1252.0105      23.660777      44.487299      50.573233      2363.5408    
    330000   330            449.7829      -18283.196      1256.1081      34.203334      44.45623       50.573233      2363.5408    
    331000   331            448.25131     -18279.207      1260.153       35.893829      44.430439      50.573233      2363.5408    
    332000   332            451.76754     -18276.099      1263.6353      33.198163      44.396709      50.573233      2363.5408    
    333000   333            450.94414     -18273.738      1267.5458      37.067332      44.374765      50.573233      2363.5408    
    334000   334            448.74452     -18265.885      1271.6448      45.01073       44.376663      50.573233      2363.5408    
    335000   335            455.31714     -18274.436      1275.5753      36.703006      44.353825      50.573233      2363.5408    
    336000   336            451.99221     -18265.383      1279.2657      30.750033      44.313457      50.573233      2363.5408    
    337000   337            446.10923     -18283.712      1282.9156      38.846321      44.297282      50.573233      2363.5408    
    338000   338            448.00107     -18275.408      1286.9121      33.73807       44.266134      50.573233      2363.5408    
    339000   339            442.53163     -18283.755      1291.2592      48.095877      44.277398      50.573233      2363.5408    
    340000   340            454.1064      -18265.566      1295.0458      48.322428      44.289261      50.573233      2363.5408    
    341000   341            444.93524     -18275.674      1299.136       53.321729      44.315671      50.573233      2363.5408    
    342000   342            447.50584     -18281.128      1302.9391      47.293158      44.324352      50.573233      2363.5408    
    343000   343            452.07702     -18262.615      1306.9333      37.168518      44.30355       50.573233      2363.5408    
    344000   344            453.86895     -18272.07       1310.6725      18.914178      44.229958      50.573233      2363.5408    
    345000   345            452.70028     -18283.107      1314.5036      30.593155      44.190545      50.573233      2363.5408    
    346000   346            451.68331     -18271.895      1318.2056      45.54788       44.194457      50.573233      2363.5408    
    347000   347            450.6731      -18276.27       1322.1391      43.735588      44.193138      50.573233      2363.5408    
    348000   348            449.945       -18275.728      1326.1741      46.591059      44.200009      50.573233      2363.5408    
    349000   349            449.1148      -18272.325      1330.1567      44.092813      44.199703      50.573233      2363.5408    
    350000   350            455.73542     -18270.838      1334.254       42.4229        44.19464       50.573233      2363.5408    
    351000   351            447.08025     -18282.464      1337.971       38.416516      44.178225      50.573233      2363.5408    
    352000   352            447.48876     -18275.316      1341.8243      41.442886      44.170477      50.573233      2363.5408    
    353000   353            444.58616     -18283.075      1345.9683      30.387247      44.131541      50.573233      2363.5408    
    354000   354            453.99204     -18272.589      1349.7366      31.199052      44.095111      50.573233      2363.5408    
    355000   355            450.66975     -18280.823      1353.6619      33.63641       44.065733      50.573233      2363.5408    
    356000   356            453.98738     -18267.79       1357.322       32.678314      44.033835      50.573233      2363.5408    
    357000   357            444.6731      -18285.355      1361.5499      39.816224      44.022054      50.573233      2363.5408    
    358000   358            447.56898     -18285.575      1365.0547      36.982745      44.002446      50.573233      2363.5408    
    359000   359            451.09249     -18262.914      1368.69        29.331949      43.961695      50.573233      2363.5408    
    360000   360            450.76003     -18278.308      1372.8464      34.361561      43.935102      50.573233      2363.5408    
    361000   361            448.87698     -18275.098      1376.6156      42.113525      43.93007       50.573233      2363.5408    
    362000   362            448.92974     -18271.734      1380.2743      53.532759      43.956523      50.573233      2363.5408    
    363000   363            450.08111     -18284.66       1383.9258      42.409964      43.952275      50.573233      2363.5408    
    364000   364            447.3674      -18280.237      1387.5776      53.973564      43.97973       50.573233      2363.5408    
    365000   365            451.52852     -18271.223      1391.4262      35.906404      43.957672      50.573233      2363.5408    
    366000   366            448.33848     -18279.282      1395.189       41.696341      43.95151       50.573233      2363.5408    
    367000   367            443.12457     -18276.322      1398.4934      36.167655      43.930358      50.573233      2363.5408    
    368000   368            458.0657      -18257.01       1402.5299      33.772152      43.902829      50.573233      2363.5408    
    369000   369            446.30842     -18273.98       1406.2198      38.936581      43.889407      50.573233      2363.5408    
    370000   370            450.55535     -18276.968      1410.1506      38.625998      43.87522       50.573233      2363.5408    
    371000   371            450.09405     -18276.806      1413.9297      27.344726      43.830783      50.573233      2363.5408    
    372000   372            450.97971     -18279.328      1417.799       38.799513      43.817295      50.573233      2363.5408    
    373000   373            449.93064     -18267.786      1421.7433      48.280537      43.829228      50.573233      2363.5408    
    374000   374            445.99751     -18293.524      1425.4466      33.310348      43.801178      50.573233      2363.5408    
    375000   375            449.68905     -18274.118      1429.8471      52.940493      43.825485      50.573233      2363.5408    
    376000   376            452.32501     -18275.562      1433.3531      50.119368      43.842179      50.573233      2363.5408    
    377000   377            452.83028     -18271.887      1437.0066      40.224729      43.832609      50.573233      2363.5408    
    378000   378            452.8906      -18264.048      1440.8018      33.666423      43.805786      50.573233      2363.5408    
    379000   379            446.96997     -18278.637      1444.7363      41.838259      43.800608      50.573233      2363.5408    
    380000   380            449.65195     -18270.091      1448.7377      39.5019        43.789325      50.573233      2363.5408    
    381000   381            457.10708     -18256.573      1452.4711      42.045826      43.784761      50.573233      2363.5408    
    382000   382            451.51932     -18270.718      1456.3877      39.356177      43.773198      50.573233      2363.5408    
    383000   383            446.50807     -18285.001      1459.8843      41.152642      43.766374      50.573233      2363.5408    
    384000   384            449.04693     -18275.204      1463.2567      42.697691      43.763598      50.573233      2363.5408    
    385000   385            445.69211     -18273.023      1467.7107      44.600301      43.765766      50.573233      2363.5408    
    386000   386            447.29422     -18273.289      1471.5402      36.480697      43.746941      50.573233      2363.5408    
    387000   387            450.55194     -18275.374      1475.211       34.196741      43.722327      50.573233      2363.5408    
    388000   388            449.60247     -18264.234      1478.8541      39.798351      43.71224       50.573233      2363.5408    
    389000   389            449.92672     -18271.552      1482.7437      36.568408      43.693923      50.573233      2363.5408    
    390000   390            448.54062     -18270.859      1486.5028      44.322169      43.695529      50.573233      2363.5408    
    391000   391            448.65356     -18279.767      1490.0155      54.130755      43.72215       50.573233      2363.5408    
    392000   392            449.97905     -18262.498      1493.9762      39.161282      43.710545      50.573233      2363.5408    
    393000   393            449.21776     -18273.456      1498.0089      63.751141      43.761409      50.573233      2363.5408    
    394000   394            450.00471     -18272.322      1501.4789      50.277788      43.777906      50.573233      2363.5408    
    395000   395            450.41892     -18273.957      1505.2317      55.343751      43.807113      50.573233      2363.5408    
    396000   396            453.86719     -18264.799      1509.1507      53.34787       43.831145      50.573233      2363.5408    
    397000   397            450.32641     -18275.192      1512.7778      51.972336      43.8516        50.573233      2363.5408    
    398000   398            452.15252     -18259.803      1516.6303      55.635853      43.881135      50.573233      2363.5408    
    399000   399            452.8098      -18272.986      1520.4071      38.564082      43.867842      50.573233      2363.5408    
    400000   400            447.28573     -18277.645      1524.311       33.423868      43.841797      50.573233      2363.5408    
    401000   401            452.9222      -18263.424      1527.8935      42.998092      43.839698      50.573233      2363.5408    
    402000   402            450.54185     -18279.162      1531.6118      30.037744      43.80545       50.573233      2363.5408    
    403000   403            460.16671     -18251.557      1535.514       39.561538      43.794946      50.573233      2363.5408    
    404000   404            446.80048     -18278.435      1539.2082      48.102181      43.805581      50.573233      2363.5408    
    405000   405            447.23136     -18278.531      1543.1194      48.366149      43.816814      50.573233      2363.5408    
    406000   406            454.7543      -18262.966      1546.8608      43.150001      43.815175      50.573233      2363.5408    
    407000   407            450.83945     -18280.073      1550.7924      40.225867      43.806378      50.573233      2363.5408    
    408000   408            449.2815      -18268.71       1554.5472      41.572656      43.800917      50.573233      2363.5408    
    409000   409            444.38866     -18278.225      1558.3815      39.467443      43.790347      50.573233      2363.5408    
    410000   410            448.46142     -18271.04       1562.1813      43.465635      43.789557      50.573233      2363.5408    
    411000   411            453.3002      -18266.338      1565.9318      56.690506      43.82087       50.573233      2363.5408    
    412000   412            448.02604     -18279.856      1569.827       41.846134      43.816089      50.573233      2363.5408    
    413000   413            451.92815     -18267.757      1573.811       48.930186      43.828442      50.573233      2363.5408    
    414000   414            449.63725     -18270.349      1577.6619      45.692422      43.832933      50.573233      2363.5408    
    415000   415            448.91359     -18279.532      1581.353       36.407413      43.815083      50.573233      2363.5408    
    416000   416            448.47479     -18273.842      1585.0443      45.579888      43.819315      50.573233      2363.5408    
    417000   417            447.38424     -18277.698      1588.9479      38.458616      43.806491      50.573233      2363.5408    
    418000   418            447.166       -18286.201      1592.5371      45.536726      43.81062       50.573233      2363.5408    
    419000   419            451.08108     -18271.528      1596.1015      42.999991      43.80869       50.573233      2363.5408    
    420000   420            448.01202     -18280.395      1600.4871      49.232598      43.821574      50.573233      2363.5408    
    421000   421            451.55701     -18282.595      1604.4586      44.402762      43.822951      50.573233      2363.5408    
    422000   422            445.8671      -18282.239      1608.3747      47.688574      43.832089      50.573233      2363.5408    
    423000   423            449.15097     -18278.089      1612.2755      50.833351      43.848602      50.573233      2363.5408    
    424000   424            452.91507     -18269.088      1616.1552      50.176627      43.863491      50.573233      2363.5408    
    425000   425            451.41586     -18280.5        1619.861       47.701248      43.8725        50.573233      2363.5408    
    426000   426            446.11906     -18282.246      1623.9417      52.049384      43.89165       50.573233      2363.5408    
    427000   427            454.3213      -18270.195      1627.2199      66.083038      43.943499      50.573233      2363.5408    
    428000   428            455.86971     -18270.52       1631.1358      47.16504       43.951008      50.573233      2363.5408    
    429000   429            446.069       -18273.914      1634.7867      60.217421      43.988837      50.573233      2363.5408    
    430000   430            448.36576     -18275.706      1638.489       52.538081      44.008673      50.573233      2363.5408    
    431000   431            452.78565     -18270.867      1642.2571      57.303621      44.039448      50.573233      2363.5408    
    432000   432            450.28033     -18271.804      1646.4164      63.759574      44.084991      50.573233      2363.5408    
    433000   433            445.41095     -18288.292      1649.9417      66.730969      44.137171      50.573233      2363.5408    
    434000   434            449.42891     -18265.716      1653.6882      59.170526      44.17173       50.573233      2363.5408    
    435000   435            456.7206      -18271.506      1657.5898      55.061178      44.196706      50.573233      2363.5408    
    436000   436            447.05915     -18277.611      1661.366       50.536921      44.211215      50.573233      2363.5408    
    437000   437            450.11597     -18278.419      1665.1081      49.006673      44.222163      50.573233      2363.5408    
    438000   438            453.75149     -18276.84       1669.3981      49.964234      44.235243      50.573233      2363.5408    
    439000   439            447.60469     -18275.925      1673.3625      47.822797      44.243397      50.573233      2363.5408    
    440000   440            453.14518     -18276.774      1676.9657      47.687923      44.251207      50.573233      2363.5408    
    441000   441            454.79547     -18260.23       1680.5555      42.446847      44.247125      50.573233      2363.5408    
    442000   442            449.5903      -18282.729      1684.5551      46.996006      44.25333       50.573233      2363.5408    
    443000   443            452.24812     -18275.179      1688.2629      47.747808      44.261201      50.573233      2363.5408    
    444000   444            446.87562     -18268.9        1691.8742      50.897563      44.276114      50.573233      2363.5408    
    445000   445            446.15428     -18278.155      1695.7035      49.575291      44.287995      50.573233      2363.5408    
    446000   446            451.62754     -18272.233      1699.7972      46.582396      44.293128      50.573233      2363.5408    
    447000   447            451.3375      -18283.515      1703.6233      47.553175      44.300405      50.573233      2363.5408    
    448000   448            454.56704     -18271.857      1707.5699      62.360161      44.340627      50.573233      2363.5408    
    449000   449            448.51864     -18276.429      1711.3287      68.513535      44.394345      50.573233      2363.5408    
    450000   450            449.71911     -18277.562      1715.2683      64.15552       44.438161      50.573233      2363.5408    
    451000   451            452.44023     -18273.404      1718.9905      54.361753      44.460116      50.573233      2363.5408    
    452000   452            451.4926      -18273.002      1722.8558      59.561355      44.493452      50.573233      2363.5408    
    453000   453            449.04069     -18278.202      1726.4537      54.250343      44.514943      50.573233      2363.5408    
    454000   454            452.76841     -18266.523      1730.0884      53.323768      44.534303      50.573233      2363.5408    
    455000   455            451.6089      -18282.4        1733.9692      53.213262      44.553336      50.573233      2363.5408    
    456000   456            447.59965     -18286.671      1737.9835      57.684547      44.582069      50.573233      2363.5408    
    457000   457            447.40533     -18277.687      1741.2996      38.422294      44.56862       50.573233      2363.5408    
    458000   458            454.43254     -18259.315      1745.0482      44.319469      44.568077      50.573233      2363.5408    
    459000   459            449.02042     -18276.767      1748.4793      42.811325      44.564258      50.573233      2363.5408    
    460000   460            446.37675     -18269.086      1752.0718      38.24909       44.550559      50.573233      2363.5408    
    461000   461            449.25776     -18269.855      1755.4126      43.146178      44.54752       50.573233      2363.5408    
    462000   462            449.44968     -18281.312      1759.3657      41.524596      44.540991      50.573233      2363.5408    
    463000   463            446.76932     -18269.768      1763.2217      41.417115      44.534258      50.573233      2363.5408    
    464000   464            452.15258     -18268.877      1767.2093      45.782438      44.536942      50.573233      2363.5408    
    465000   465            450.02496     -18278.759      1770.7864      47.285808      44.542841      50.573233      2363.5408    
    466000   466            449.10135     -18277.826      1775.0292      42.268968      44.537972      50.573233      2363.5408    
    467000   467            451.74374     -18263.59       1778.5907      40.415801      44.529164      50.573233      2363.5408    
    468000   468            449.95208     -18271.259      1782.216       37.698901      44.514601      50.573233      2363.5408    
    469000   469            449.66281     -18274.454      1785.813       45.864408      44.517473      50.573233      2363.5408    
    470000   470            445.58491     -18271.49       1789.8652      44.991168      44.518478      50.573233      2363.5408    
    471000   471            448.55927     -18269.656      1793.6322      39.584252      44.508024      50.573233      2363.5408    
    472000   472            441.3993      -18286.525      1797.6189      38.929948      44.496231      50.573233      2363.5408    
    473000   473            455.27832     -18268.687      1801.0504      30.49312       44.466689      50.573233      2363.5408    
    474000   474            450.90702     -18286.586      1805.0614      36.074714      44.449022      50.573233      2363.5408    
    475000   475            449.43412     -18267.145      1809.0871      46.88656       44.454143      50.573233      2363.5408    
    476000   476            447.63887     -18281.845      1812.7793      44.945338      44.455172      50.573233      2363.5408    
    477000   477            445.77753     -18284.293      1816.1763      51.038672      44.468945      50.573233      2363.5408    
    478000   478            454.32455     -18272.803      1819.7561      44.675563      44.469377      50.573233      2363.5408    
    479000   479            453.44183     -18261.639      1823.5385      43.446157      44.467245      50.573233      2363.5408    
    480000   480            452.23661     -18277.402      1827.3382      39.06369       44.456011      50.573233      2363.5408    
    481000   481            449.96193     -18271.128      1831.3907      41.391647      44.449653      50.573233      2363.5408    
    482000   482            449.91587     -18276.479      1834.9486      45.900311      44.452657      50.573233      2363.5408    
    483000   483            447.98591     -18276.486      1838.5991      47.758467      44.459487      50.573233      2363.5408    
    484000   484            458.70584     -18263.067      1842.8603      51.95333       44.474938      50.573233      2363.5408    
    485000   485            446.48388     -18277.477      1847.0326      41.751655      44.469335      50.573233      2363.5408    
    486000   486            448.40003     -18271.843      1850.7315      28.109282      44.435741      50.573233      2363.5408    
    487000   487            448.11257     -18282.36       1854.706       25.651477      44.397249      50.573233      2363.5408    
    488000   488            447.97421     -18267.046      1858.2336      29.127192      44.366022      50.573233      2363.5408    
    489000   489            451.15394     -18265.827      1861.8466      41.183664      44.359527      50.573233      2363.5408    
    490000   490            449.12076     -18275.353      1865.5391      42.444332      44.355627      50.573233      2363.5408    
    491000   491            455.56982     -18262.599      1869.1761      39.907746      44.346586      50.573233      2363.5408    
    492000   492            440.05844     -18293.671      1873.0646      51.121016      44.360327      50.573233      2363.5408    
    493000   493            451.95916     -18266.753      1876.7814      52.925154      44.377665      50.573233      2363.5408    
    494000   494            449.26092     -18272.29       1880.3925      58.081559      44.40535       50.573233      2363.5408    
    495000   495            444.58922     -18273.87       1883.9529      56.927679      44.430596      50.573233      2363.5408    
    496000   496            454.14129     -18270.988      1887.759       58.391157      44.458686      50.573233      2363.5408    
    497000   497            447.31999     -18278.498      1891.3538      50.706846      44.471233      50.573233      2363.5408    
    498000   498            451.55985     -18255.038      1895.5241      49.990666      44.482294      50.573233      2363.5408    
    499000   499            449.41794     -18263.643      1898.9942      33.371933      44.460073      50.573233      2363.5408    
    500000   500            449.99618     -18276.797      1902.92        35.277191      44.441744      50.573233      2363.5408    
    501000   501            447.85992     -18271.726      1906.5117      46.258381      44.445363      50.573233      2363.5408    
    502000   502            448.0132      -18284.228      1910.2903      16.708583      44.39022       50.573233      2363.5408    
    503000   503            448.86636     -18266.472      1914.3754      35.708634      44.372994      50.573233      2363.5408    
    504000   504            451.15606     -18261.466      1917.8665      48.873267      44.381906      50.573233      2363.5408    
    505000   505            448.7796      -18277.479      1921.5085      51.237329      44.395454      50.573233      2363.5408    
    506000   506            449.21492     -18280.4        1925.5778      49.956544      44.406423      50.573233      2363.5408    
    507000   507            452.14136     -18270.428      1928.9753      45.644653      44.40886       50.573233      2363.5408    
    508000   508            446.95656     -18269.427      1932.6812      43.209482      44.406504      50.573233      2363.5408    
    509000   509            448.89404     -18271.077      1936.3633      48.371827      44.414279      50.573233      2363.5408    
    510000   510            447.35508     -18271.788      1940.3547      42.653702      44.410834      50.573233      2363.5408    
    511000   511            442.95243     -18292.259      1944.4269      46.49861       44.414911      50.573233      2363.5408    
    512000   512            454.99707     -18262.834      1947.8142      39.42704       44.405188      50.573233      2363.5408    
    513000   513            446.95632     -18283.77       1951.7596      46.685815      44.409625      50.573233      2363.5408    
    514000   514            451.60539     -18271.171      1955.6016      46.572014      44.413824      50.573233      2363.5408    
    515000   515            449.5881      -18278.271      1959.2277      37.911541      44.401223      50.573233      2363.5408    
    516000   516            451.16275     -18277.176      1962.9482      52.216402      44.416339      50.573233      2363.5408    
    517000   517            452.24234     -18272.57       1966.8379      40.812245      44.409382      50.573233      2363.5408    
    518000   518            448.28205     -18277.927      1970.8453      37.440465      44.395954      50.573233      2363.5408    
    519000   519            450.37759     -18273.957      1974.485       30.942386      44.370082      50.573233      2363.5408    
    520000   520            446.90038     -18276.05       1978.0621      30.512115      44.343483      50.573233      2363.5408    
    521000   521            450.05994     -18282.654      1981.597       41.997439      44.338989      50.573233      2363.5408    
    522000   522            450.24881     -18272.39       1985.753       34.381028      44.319949      50.573233      2363.5408    
    523000   523            447.23489     -18266.418      1989.5182      36.996727      44.305973      50.573233      2363.5408    
    524000   524            455.58396     -18264.805      1993.6058      44.16947       44.305713      50.573233      2363.5408    
    525000   525            451.92034     -18276.39       1997.1615      50.043917      44.316622      50.573233      2363.5408    
    526000   526            448.37883     -18276.163      2000.6387      49.163555      44.325819      50.573233      2363.5408    
    527000   527            444.27481     -18279.202      2004.834       44.888206      44.326884      50.573233      2363.5408    
    528000   528            451.00936     -18262.92       2008.7531      34.082551      44.307519      50.573233      2363.5408    
    529000   529            445.03096     -18271.413      2012.4018      30.386561      44.281253      50.573233      2363.5408    
    530000   530            449.33393     -18275.028      2016.2968      46.249511      44.28496       50.573233      2363.5408    
    531000   531            448.58257     -18271.53       2019.8859      54.954097      44.305014      50.573233      2363.5408    
    532000   532            452.50695     -18268.781      2023.6303      64.895483      44.343646      50.573233      2363.5408    
    533000   533            449.22107     -18274.901      2027.7574      47.746568      44.350018      50.573233      2363.5408    
    534000   534            452.05177     -18259.224      2031.7543      48.161878      44.357143      50.573233      2363.5408    
    535000   535            453.17141     -18268.792      2035.6216      43.718683      44.355952      50.573233      2363.5408    
    536000   536            450.61473     -18279.96       2039.4615      47.105848      44.361073      50.573233      2363.5408    
    537000   537            459.87227     -18250.557      2043.3126      41.694085      44.356116      50.573233      2363.5408    
    538000   538            455.33447     -18275.981      2047.0281      39.159927      44.346475      50.573233      2363.5408    
    539000   539            454.70757     -18257.502      2050.8791      42.807957      44.343626      50.573233      2363.5408    
    540000   540            449.86869     -18268.267      2054.5217      39.317762      44.334336      50.573233      2363.5408    
    541000   541            441.07345     -18284.703      2058.2716      53.955629      44.352088      50.573233      2363.5408    
    542000   542            449.66947     -18277.357      2061.9777      54.917447      44.371545      50.573233      2363.5408    
    543000   543            452.04621     -18267.537      2065.7922      48.251486      44.378677      50.573233      2363.5408    
    544000   544            449.22261     -18269.588      2069.6088      46.199554      44.382018      50.573233      2363.5408    
    545000   545            451.05258     -18276.256      2073.5305      45.638049      44.384319      50.573233      2363.5408    
    546000   546            449.74838     -18265.745      2077.1464      49.491217      44.393655      50.573233      2363.5408    
    547000   547            448.79541     -18274.508      2080.932       61.185883      44.424298      50.573233      2363.5408    
    548000   548            453.12181     -18260.062      2084.4253      44.397776      44.424249      50.573233      2363.5408    
    549000   549            449.95479     -18276.889      2088.2993      46.57956       44.428168      50.573233      2363.5408    
    550000   550            445.80963     -18280.137      2092.253       44.455105      44.428217      50.573233      2363.5408    
    551000   551            451.52534     -18269.863      2095.9062      51.871086      44.441701      50.573233      2363.5408    
    552000   552            453.93439     -18273.198      2099.6695      56.4757        44.463462      50.573233      2363.5408    
    553000   553            455.3602      -18264.028      2103.9948      52.23918       44.477497      50.573233      2363.5408    
    554000   554            444.26559     -18274.349      2107.4988      64.55089       44.513666      50.573233      2363.5408    
    555000   555            444.75217     -18271.766      2111.0358      54.640326      44.531879      50.573233      2363.5408    
    556000   556            450.12704     -18264.368      2114.8335      56.407549      44.5532        50.573233      2363.5408    
    557000   557            449.43381     -18278.214      2118.8942      45.616486      44.555105      50.573233      2363.5408    
    558000   558            451.29735     -18266.076      2122.4735      53.446771      44.571012      50.573233      2363.5408    
    559000   559            449.47753     -18269.643      2126.4204      54.6049        44.588929      50.573233      2363.5408    
    560000   560            454.50004     -18269.107      2130.002       44.604256      44.588957      50.573233      2363.5408    
    561000   561            448.80672     -18273.309      2133.9223      43.910114      44.587749      50.573233      2363.5408    
    562000   562            455.34334     -18261.001      2137.8781      49.41502       44.596323      50.573233      2363.5408    
    563000   563            446.1819      -18275.499      2141.8318      61.216708      44.625792      50.573233      2363.5408    
    564000   564            449.43771     -18265.705      2145.6868      56.768097      44.647283      50.573233      2363.5408    
    565000   565            449.58577     -18265.639      2149.3522      54.191182      44.664145      50.573233      2363.5408    
    566000   566            441.56001     -18273.503      2153.0538      57.294873      44.686421      50.573233      2363.5408    
    567000   567            451.48732     -18264.572      2157.3528      49.016512      44.694044      50.573233      2363.5408    
    568000   568            449.29692     -18276.666      2160.9149      55.400719      44.712861      50.573233      2363.5408    
    569000   569            449.62054     -18266.872      2165.0851      38.721393      44.70235       50.573233      2363.5408    
    570000   570            449.18428     -18270.953      2169.2273      44.994758      44.702862      50.573233      2363.5408    
    571000   571            454.9347      -18249.102      2172.6797      45.366569      44.704022      50.573233      2363.5408    
    572000   572            443.32029     -18277.651      2176.2208      43.44098       44.701818      50.573233      2363.5408    
    573000   573            453.3965      -18270.106      2179.8951      41.935767      44.696999      50.573233      2363.5408    
    574000   574            446.19921     -18273.806      2183.8321      40.412289      44.689547      50.573233      2363.5408    
    575000   575            450.11431     -18271.058      2187.535       46.475608      44.692648      50.573233      2363.5408    
    576000   576            451.54168     -18265.58       2191.1863      36.804938      44.678978      50.573233      2363.5408    
    577000   577            457.05017     -18262.548      2194.6818      45.095514      44.679699      50.573233      2363.5408    
    578000   578            454.2606      -18271.509      2198.3273      43.64184       44.677906      50.573233      2363.5408    
    579000   579            449.62338     -18270.933      2202.2958      33.461881      44.658568      50.573233      2363.5408    
    580000   580            448.88689     -18276.071      2206.2222      33.857827      44.639978      50.573233      2363.5408    
    581000   581            454.34419     -18269.755      2210.4103      39.575249      44.631276      50.573233      2363.5408    
    582000   582            447.97385     -18262.793      2214.4255      27.566463      44.602005      50.573233      2363.5408    
    583000   583            447.28843     -18282.192      2218.0105      31.202317      44.579061      50.573233      2363.5408    
    584000   584            447.81883     -18280.519      2221.645       26.685129      44.548473      50.573233      2363.5408    
    585000   585            449.49319     -18269.836      2225.4124      27.000323      44.518527      50.573233      2363.5408    
    586000   586            449.69619     -18273.635      2228.934       37.086295      44.505866      50.573233      2363.5408    
    587000   587            452.18144     -18262.345      2232.7838      41.524313      44.500795      50.573233      2363.5408    
[...]
   2860000   2860           453.93666     -18267.687      10841.88       48.980908      46.4085        50.573233      2363.5408    
   2861000   2861           450.03586     -18274.726      10845.906      32.176316      46.403527      50.573233      2363.5408    
   2862000   2862           452.1342      -18269.971      10849.743      45.249277      46.403124      50.573233      2363.5408    
   2863000   2863           453.04538     -18273.903      10853.671      52.403747      46.405219      50.573233      2363.5408    
   2864000   2864           445.5162      -18277.309      10857.317      28.966422      46.399132      50.573233      2363.5408    
   2865000   2865           445.4439      -18284.431      10860.85       31.249145      46.393846      50.573233      2363.5408    
   2866000   2866           447.32181     -18282.165      10864.701      28.758195      46.387695      50.573233      2363.5408    
   2867000   2867           451.77038     -18277.017      10868.882      20.643011      46.378718      50.573233      2363.5408    
   2868000   2868           453.40121     -18266.003      10872.878      30.101953      46.373045      50.573233      2363.5408    
   2869000   2869           456.7027      -18264.514      10876.384      55.804726      46.376331      50.573233      2363.5408    
   2870000   2870           450.08266     -18275.363      10879.965      54.235627      46.379069      50.573233      2363.5408    
   2871000   2871           453.70703     -18280.679      10883.771      45.109519      46.378627      50.573233      2363.5408    
   2872000   2872           450.9858      -18276.165      10887.503      52.880332      46.38089       50.573233      2363.5408    
   2873000   2873           444.44799     -18281.995      10891.511      42.145243      46.379416      50.573233      2363.5408    
   2874000   2874           453.30635     -18266.631      10895.494      50.554351      46.380868      50.573233      2363.5408    
   2875000   2875           450.99342     -18283.319      10899.262      35.851164      46.377207      50.573233      2363.5408    
   2876000   2876           453.07875     -18271.465      10903.031      37.840143      46.374239      50.573233      2363.5408    
   2877000   2877           451.31328     -18280.542      10906.667      47.327162      46.374571      50.573233      2363.5408    
   2878000   2878           450.03286     -18282.44       10910.618      45.039696      46.374107      50.573233      2363.5408    
   2879000   2879           454.76648     -18262.565      10914.147      56.250945      46.377536      50.573233      2363.5408    
   2880000   2880           449.62168     -18279.931      10918.24       39.916901      46.375294      50.573233      2363.5408    
   2881000   2881           450.09231     -18274.082      10922.294      52.028957      46.377256      50.573233      2363.5408    
   2882000   2882           449.36318     -18283.123      10926.364      44.237705      46.376513      50.573233      2363.5408    
   2883000   2883           450.8632      -18268.362      10930.333      55.989192      46.379847      50.573233      2363.5408    
   2884000   2884           445.9412      -18285.976      10933.734      51.210213      46.381521      50.573233      2363.5408    
   2885000   2885           454.07655     -18272.291      10937.799      53.051217      46.383832      50.573233      2363.5408    
   2886000   2886           448.32302     -18269.159      10941.345      33.224241      46.379274      50.573233      2363.5408    
   2887000   2887           449.99555     -18278.921      10944.923      39.042126      46.376733      50.573233      2363.5408    
   2888000   2888           453.07198     -18263.073      10948.416      42.661007      46.375447      50.573233      2363.5408    
   2889000   2889           454.50212     -18265.404      10951.918      35.202602      46.371581      50.573233      2363.5408    
   2890000   2890           454.73154     -18274.009      10955.501      58.047554      46.37562       50.573233      2363.5408    
   2891000   2891           447.32797     -18283.93       10959.318      38.886057      46.37303       50.573233      2363.5408    
   2892000   2892           455.08522     -18271.095      10963.367      52.329092      46.375089      50.573233      2363.5408    
   2893000   2893           446.73611     -18286.284      10967.343      50.972768      46.376677      50.573233      2363.5408    
   2894000   2894           447.87716     -18285.093      10970.727      40.076932      46.374501      50.573233      2363.5408    
   2895000   2895           452.25027     -18270.707      10974.669      37.948208      46.371592      50.573233      2363.5408    
   2896000   2896           447.68161     -18281.651      10978.252      52.139269      46.373583      50.573233      2363.5408    
   2897000   2897           448.15993     -18273.665      10982.252      63.426155      46.379467      50.573233      2363.5408    
   2898000   2898           449.01229     -18281.516      10985.902      65.674418      46.386123      50.573233      2363.5408    
   2899000   2899           450.58317     -18267.022      10989.644      59.338417      46.390589      50.573233      2363.5408    
   2900000   2900           443.39576     -18280.515      10993.724      40.342126      46.388504      50.573233      2363.5408    
   2901000   2901           449.74556     -18280.919      10997.769      48.085832      46.389089      50.573233      2363.5408    
   2902000   2902           449.93307     -18269.002      11001.148      62.822845      46.39475       50.573233      2363.5408    
   2903000   2903           453.76516     -18257.896      11004.602      57.088472      46.398432      50.573233      2363.5408    
   2904000   2904           448.633       -18265.95       11008.517      48.928786      46.399303      50.573233      2363.5408    
   2905000   2905           445.61395     -18278.749      11011.92       44.37661       46.398607      50.573233      2363.5408    
   2906000   2906           450.82405     -18271.511      11015.704      49.362283      46.399627      50.573233      2363.5408    
   2907000   2907           452.84982     -18262.181      11019.626      52.135421      46.401599      50.573233      2363.5408    
   2908000   2908           445.90351     -18288.33       11023.102      41.351246      46.399863      50.573233      2363.5408    
   2909000   2909           448.57597     -18274.979      11026.474      47.442058      46.400221      50.573233      2363.5408    
   2910000   2910           447.52056     -18284.955      11030.311      52.076666      46.402171      50.573233      2363.5408    
   2911000   2911           451.53882     -18269.696      11034.588      53.439309      46.404588      50.573233      2363.5408    
   2912000   2912           451.74419     -18272.735      11038.289      46.638018      46.404668      50.573233      2363.5408    
   2913000   2913           448.68937     -18271.821      11041.805      46.373587      46.404657      50.573233      2363.5408    
   2914000   2914           455.57729     -18271.769      11045.62       49.651902      46.405771      50.573233      2363.5408    
   2915000   2915           445.20068     -18286.143      11048.988      44.352772      46.405067      50.573233      2363.5408    
   2916000   2916           448.10118     -18278.523      11052.946      46.927815      46.405246      50.573233      2363.5408    
   2917000   2917           454.84145     -18257.691      11056.618      44.575939      46.404619      50.573233      2363.5408    
   2918000   2918           453.37242     -18284.7        11060.424      38.265363      46.401831      50.573233      2363.5408    
   2919000   2919           451.02866     -18268.33       11063.923      60.08305       46.406516      50.573233      2363.5408    
   2920000   2920           456.95383     -18263.172      11067.616      42.587369      46.405209      50.573233      2363.5408    
   2921000   2921           449.34548     -18280.748      11071.702      50.168985      46.406497      50.573233      2363.5408    
   2922000   2922           451.26918     -18278.538      11075.452      37.508513      46.403453      50.573233      2363.5408    
   2923000   2923           452.67255     -18270.212      11079.221      26.125671      46.396518      50.573233      2363.5408    
   2924000   2924           448.75698     -18277.768      11083.026      26.188336      46.389609      50.573233      2363.5408    
   2925000   2925           446.17936     -18281.111      11086.878      30.29929       46.38411       50.573233      2363.5408    
   2926000   2926           447.88757     -18271.265      11090.453      35.731713      46.380471      50.573233      2363.5408    
   2927000   2927           447.07422     -18277.864      11094.385      24.241696      46.37291       50.573233      2363.5408    
   2928000   2928           454.5731      -18266.962      11098.091      38.665733      46.370278      50.573233      2363.5408    
   2929000   2929           451.05227     -18278.243      11101.92       31.91893       46.365346      50.573233      2363.5408    
   2930000   2930           450.30404     -18269.935      11105.52       46.366071      46.365346      50.573233      2363.5408    
   2931000   2931           450.73194     -18282.436      11109.44       42.411029      46.363998      50.573233      2363.5408    
   2932000   2932           455.81519     -18268.75       11113.142      47.345204      46.364332      50.573233      2363.5408    
   2933000   2933           446.93127     -18274.868      11117.108      38.823876      46.361762      50.573233      2363.5408    
   2934000   2934           450.4579      -18278.707      11120.883      42.221231      46.360351      50.573233      2363.5408    
   2935000   2935           451.93265     -18272.542      11125.233      37.738722      46.357415      50.573233      2363.5408    
   2936000   2936           448.48877     -18281.006      11129.118      40.196721      46.355317      50.573233      2363.5408    
   2937000   2937           448.99899     -18274.427      11133.012      43.304238      46.354279      50.573233      2363.5408    
   2938000   2938           452.29372     -18275.958      11136.785      42.463878      46.352955      50.573233      2363.5408    
   2939000   2939           443.89659     -18283.717      11140.658      29.504906      46.347224      50.573233      2363.5408    
   2940000   2940           453.0377      -18273.87       11144.595      52.546027      46.349332      50.573233      2363.5408    
   2941000   2941           447.61765     -18267.08       11148.817      31.831296      46.344397      50.573233      2363.5408    
   2942000   2942           443.62028     -18284.401      11152.585      36.658284      46.341106      50.573233      2363.5408    
   2943000   2943           453.97686     -18249.405      11156.477      34.434251      46.337062      50.573233      2363.5408    
   2944000   2944           447.61837     -18284.156      11160.479      36.57252       46.333746      50.573233      2363.5408    
   2945000   2945           464.59535     -18250.346      11164.786      48.538839      46.334495      50.573233      2363.5408    
   2946000   2946           452.10827     -18283.273      11168.618      41.238526      46.332765      50.573233      2363.5408    
   2947000   2947           457.24543     -18261.091      11172.353      24.139574      46.325237      50.573233      2363.5408    
   2948000   2948           451.6595      -18279.944      11176.148      40.050885      46.32311       50.573233      2363.5408    
   2949000   2949           452.88274     -18264.765      11179.716      60.285474      46.327843      50.573233      2363.5408    
   2950000   2950           445.01025     -18277.619      11183.4        54.53892       46.330625      50.573233      2363.5408    
   2951000   2951           447.9957      -18269.152      11187.306      60.170045      46.335313      50.573233      2363.5408    
   2952000   2952           445.36522     -18283.898      11191.348      63.174728      46.341016      50.573233      2363.5408    
   2953000   2953           447.85697     -18275.121      11194.974      42.603039      46.33975       50.573233      2363.5408    
   2954000   2954           451.25673     -18272.342      11199.622      43.288678      46.338718      50.573233      2363.5408    
   2955000   2955           444.16804     -18289.156      11203.286      43.244217      46.337671      50.573233      2363.5408    
   2956000   2956           449.97853     -18267.845      11207.007      38.806671      46.335124      50.573233      2363.5408    
   2957000   2957           460.09026     -18258.06       11210.587      35.707473      46.331531      50.573233      2363.5408    
   2958000   2958           450.7426      -18266.728      11214.454      48.763487      46.332353      50.573233      2363.5408    
   2959000   2959           449.80275     -18273.656      11218.267      57.644484      46.336175      50.573233      2363.5408    
   2960000   2960           449.45327     -18275.9        11222.635      40.610944      46.334241      50.573233      2363.5408    
   2961000   2961           455.49734     -18268.094      11226.296      48.943155      46.335122      50.573233      2363.5408    
   2962000   2962           448.28846     -18280.261      11230.325      43.224444      46.334072      50.573233      2363.5408    
   2963000   2963           446.34266     -18277.21       11234.23       55.721594      46.337239      50.573233      2363.5408    
   2964000   2964           447.77835     -18286.619      11237.923      55.11962       46.340201      50.573233      2363.5408    
   2965000   2965           459.41196     -18245.652      11241.958      55.666327      46.343346      50.573233      2363.5408    
   2966000   2966           450.5372      -18273.134      11245.597      60.858998      46.348238      50.573233      2363.5408    
   2967000   2967           447.02628     -18289.199      11249.145      61.089386      46.353205      50.573233      2363.5408    
   2968000   2968           450.5775      -18272.254      11252.761      65.330856      46.359597      50.573233      2363.5408    
   2969000   2969           449.36227     -18278.513      11256.461      59.351369      46.363971      50.573233      2363.5408    
   2970000   2970           445.51967     -18285.864      11260.145      46.751716      46.364102      50.573233      2363.5408    
   2971000   2971           454.0216      -18271.101      11264.471      45.182495      46.363704      50.573233      2363.5408    
   2972000   2972           450.02712     -18287.83       11268.621      33.694062      46.359442      50.573233      2363.5408    
   2973000   2973           445.28383     -18280.897      11272.872      22.168219      46.351308      50.573233      2363.5408    
   2974000   2974           449.84388     -18274.056      11276.822      30.841665      46.346095      50.573233      2363.5408    
   2975000   2975           455.08149     -18275.642      11280.834      42.395008      46.344767      50.573233      2363.5408    
   2976000   2976           451.39425     -18267.722      11284.717      49.128893      46.345702      50.573233      2363.5408    
   2977000   2977           453.60611     -18280.306      11288.586      54.898263      46.348574      50.573233      2363.5408    
   2978000   2978           454.28367     -18260.777      11292.351      32.877254      46.344052      50.573233      2363.5408    
   2979000   2979           445.8047      -18273.81       11295.962      39.976116      46.341915      50.573233      2363.5408    
   2980000   2980           448.78555     -18276.476      11299.535      46.425773      46.341943      50.573233      2363.5408    
   2981000   2981           450.63962     -18274.584      11303.326      43.585342      46.341019      50.573233      2363.5408    
   2982000   2982           447.14155     -18280.238      11307.346      34.377255      46.337008      50.573233      2363.5408    
   2983000   2983           445.9391      -18280.511      11311.714      42.615037      46.335761      50.573233      2363.5408    
   2984000   2984           454.89669     -18262.516      11315.617      48.461639      46.336473      50.573233      2363.5408    
   2985000   2985           450.31814     -18277.879      11319.214      41.624769      46.334895      50.573233      2363.5408    
   2986000   2986           446.13603     -18275.334      11322.812      60.286495      46.339566      50.573233      2363.5408    
   2987000   2987           449.81481     -18265.277      11326.892      44.24635       46.338866      50.573233      2363.5408    
   2988000   2988           448.77804     -18276.17       11330.758      31.596413      46.333933      50.573233      2363.5408    
   2989000   2989           449.60862     -18276.155      11334.188      44.314257      46.333258      50.573233      2363.5408    
   2990000   2990           449.36265     -18266.945      11338.141      49.631811      46.334361      50.573233      2363.5408    
   2991000   2991           451.60438     -18278.052      11341.739      47.292056      46.334681      50.573233      2363.5408    
   2992000   2992           450.94242     -18278.862      11345.459      45.809735      46.334505      50.573233      2363.5408    
   2993000   2993           450.97773     -18268.063      11348.951      51.731806      46.336308      50.573233      2363.5408    
   2994000   2994           450.7195      -18272.483      11352.72       57.45928       46.340022      50.573233      2363.5408    
   2995000   2995           446.41804     -18289.468      11356.099      55.497996      46.343079      50.573233      2363.5408    
   2996000   2996           451.46273     -18281.056      11359.66       44.552551      46.342481      50.573233      2363.5408    
   2997000   2997           454.46055     -18267.191      11363.701      50.993843      46.344033      50.573233      2363.5408    
   2998000   2998           448.26647     -18277.496      11367.579      50.05797       46.345271      50.573233      2363.5408    
   2999000   2999           446.29433     -18276.808      11371.02       60.145932      46.349871      50.573233      2363.5408    
   3000000   3000           450.79985     -18270.445      11374.796      57.391049      46.353551      50.573233      2363.5408    
Loop time of 16274.3 on 12 procs for 3000000 steps with 12312 atoms

Performance: 15.927 ns/day, 1.507 hours/ns, 184.339 timesteps/s, 2.270 Matom-step/s
96.8% CPU use with 12 MPI tasks x 1 OpenMP threads

MPI task timing breakdown:
Section |  min time  |  avg time  |  max time  |%varavg| %total
---------------------------------------------------------------
Pair    | 8301.6     | 8820.7     | 9268.1     | 350.7 | 54.20
Bond    | 629.6      | 729.47     | 825.99     | 315.7 |  4.48
Kspace  | 4020.7     | 4352       | 4757.7     | 331.3 | 26.74
Neigh   | 1462.6     | 1462.8     | 1463       |   0.3 |  8.99
Comm    | 679.4      | 719.8      | 767.46     | 126.8 |  4.42
Output  | 0.12581    | 0.2676     | 0.28129    |   8.3 |  0.00
Modify  | 141.25     | 149.93     | 159.05     |  44.1 |  0.92
Other   |            | 39.45      |            |       |  0.24

Nlocal:           1026 ave        1148 max         909 min
Histogram: 2 1 1 0 2 2 0 2 1 1
Nghost:        7650.75 ave        7882 max        7462 min
Histogram: 1 2 2 1 0 3 0 1 1 1
Neighs:              0 ave           0 max           0 min
Histogram: 12 0 0 0 0 0 0 0 0 0

Total # of neighbors = 0
Ave neighs/atom = 0
Ave special neighs/atom = 8.920078
Neighbor list builds = 128634
Dangerous builds = 0

# variable kappa equal (v_tot_transf_ek/(time)/(v_area)/2.0)*(v_Lb/2.0)/f_aveTdiff
Total wall time: 8:01:20
