reset_timestep 0

# reset the temp_profile, to produce a new data file
fix temp_profile all ave/chunk 10 100 1000 chunkID temp file ${step}.T_profile_${dir}.dat
fix temp_profile all ave/chunk 10 100 1000 chunkID temp file s02_compute_kappa.T_profile_${dir}.dat
fix temp_profile all ave/chunk 10 100 1000 chunkID temp file s02_compute_kappa.T_profile_y.dat

# compute difference in T between central and external layer
variable T_diff equal f_temp_profile[${middleval}][3]-f_temp_profile[1][3]
variable T_diff equal f_temp_profile[11][3]-f_temp_profile[1][3]

# reset fix thermal/conductivity to zero energy accumulation
# fix transf_ek_pC paraffinC thermal/conductivity ${freq} ${dir} ${lnum} swap 1
# fix transf_ek_pH paraffinH thermal/conductivity ${freq} ${dir} ${lnum} swap 1
# fix transf_ek_gC grapheneC thermal/conductivity ${freq} ${dir} ${lnum} swap 1
#variable tot_transf_ek equal f_transf_ek_pC+f_transf_ek_pH+f_transf_ek_gC
fix transf_ek CC thermal/conductivity ${freq} ${dir} ${lnum} swap 3
fix transf_ek CC thermal/conductivity 200 ${dir} ${lnum} swap 3
fix transf_ek CC thermal/conductivity 200 y ${lnum} swap 3
fix transf_ek CC thermal/conductivity 200 y 20 swap 3

fix aveTdiff all ave/time 1 1 1000 v_T_diff ave running

# thermo_style custom step time temp etotal f_transf_ek_pC f_transf_ek_pH f_transf_ek_gC v_tot_transf_ek v_T_diff f_aveTdiff v_Lb v_area
thermo_style custom step time temp etotal f_transf_ek v_T_diff f_aveTdiff v_Lb v_area

run $(v_ns_for_k/0.001/v_dt)
run 3000000
PPPM initialization ...
  using 12-bit tables for long-range coulomb (src/kspace.cpp:342)
  G vector (1/distance) = 0.27690352
  grid = 24 24 24
  stencil order = 5
  estimated absolute RMS force accuracy = 9.0591945e-05
  estimated relative force accuracy = 6.2912624e-06
  using double precision FFTW3
  3d grid and FFT values/proc = 4913 1728
WARNING: Using a manybody potential with bonds/angles/dihedrals and special_bond exclusions (src/pair.cpp:242)
Hybrid pair style last /omp style lj/cut/coul/long
Last active /omp style is kspace_style pppm/omp
WARNING: Inconsistent image flags (src/domain.cpp:815)
Per MPI rank memory allocation (min/avg/max) = 19.61 | 19.61 | 19.61 Mbytes
   Step          Time           Temp          TotEng      f_transf_ek      v_T_diff      f_aveTdiff        v_Lb          v_area    
         0   0              448.48325     -18275.315      0              0              0              48.183817      2480.7478    
      1000   1              450.31261     -18280.481      3.7407149      36.805257      18.402628      48.183817      2480.7478    
      2000   2              447.50555     -18274.556      7.4110309      34.314804      23.706687      48.183817      2480.7478    
      3000   3              445.13314     -18288.364      11.521453      30.148785      25.317212      48.183817      2480.7478    
      4000   4              447.34843     -18276.595      15.192079      26.44759       25.543287      48.183817      2480.7478    
      5000   5              446.84453     -18278.569      18.779658      38.890349      27.767798      48.183817      2480.7478    
      6000   6              445.91164     -18275.753      22.649428      37.22278       29.118509      48.183817      2480.7478    
      7000   7              453.94693     -18266.128      26.320866      37.073905      30.112934      48.183817      2480.7478    
      8000   8              450.13285     -18276.112      30.125816      39.97686       31.208926      48.183817      2480.7478    
      9000   9              445.93913     -18287.401      34.409939      38.486876      31.936721      48.183817      2480.7478    
     10000   10             451.41538     -18272.478      37.906632      28.200454      31.59706       48.183817      2480.7478    
     11000   11             447.77867     -18271.377      41.928294      26.395013      31.163556      48.183817      2480.7478    
     12000   12             444.20774     -18280.012      45.796487      26.533426      30.807392      48.183817      2480.7478    
     13000   13             445.31467     -18279.861      49.70633       38.391058      31.349083      48.183817      2480.7478    
     14000   14             452.11533     -18265.843      53.334274      37.09351       31.732044      48.183817      2480.7478    
     15000   15             447.40183     -18277.866      57.366254      24.592109      31.285798      48.183817      2480.7478    
     16000   16             457.10662     -18256.534      61.260146      31.26357       31.284491      48.183817      2480.7478    
     17000   17             451.40102     -18274.92       65.635185      32.973895      31.378347      48.183817      2480.7478    
     18000   18             452.12915     -18265.087      69.53674       40.006665      31.832469      48.183817      2480.7478    
     19000   19             448.49523     -18278.478      73.517069      41.825696      32.33213       48.183817      2480.7478    
     20000   20             447.65046     -18268.07       77.294171      43.159979      32.847742      48.183817      2480.7478    
     21000   21             450.90979     -18282.799      81.196522      42.893625      33.304373      48.183817      2480.7478    
     22000   22             453.42911     -18264.948      85.238589      43.546727      33.749693      48.183817      2480.7478    
     23000   23             445.98223     -18276.551      89.069582      49.355693      34.399943      48.183817      2480.7478    
     24000   24             450.74111     -18270.989      92.976364      44.735994      34.813385      48.183817      2480.7478    
     25000   25             453.35096     -18258.071      96.537045      49.540359      35.379807      48.183817      2480.7478    
     26000   26             450.54621     -18277.058      100.24705      31.33177       35.229879      48.183817      2480.7478    
     27000   27             453.88017     -18261.673      104.07698      37.65071       35.316338      48.183817      2480.7478    
     28000   28             449.49324     -18276.48       107.85367      28.968738      35.097455      48.183817      2480.7478    
     29000   29             449.52662     -18277.452      111.40964      34.219394      35.068186      48.183817      2480.7478    
     30000   30             446.77527     -18271.677      114.99042      39.963526      35.2261        48.183817      2480.7478    
     31000   31             445.48682     -18273.002      119.72878      37.888667      35.309306      48.183817      2480.7478    
     32000   32             450.81826     -18257.844      124.18775      38.725886      35.412838      48.183817      2480.7478    
     33000   33             444.81258     -18274.014      127.86161      29.425071      35.236728      48.183817      2480.7478    
     34000   34             455.65466     -18260.746      131.9073       43.050874      35.459989      48.183817      2480.7478    
     35000   35             450.60549     -18268.809      135.76209      29.982629      35.30784       48.183817      2480.7478    
     36000   36             448.04334     -18272.388      139.82798      33.967862      35.271624      48.183817      2480.7478    
     37000   37             453.72577     -18258.548      143.86715      44.832145      35.523217      48.183817      2480.7478    
     38000   38             451.22935     -18265.565      147.38069      41.042276      35.664731      48.183817      2480.7478    
     39000   39             446.43817     -18270.234      151.05623      36.250955      35.679387      48.183817      2480.7478    
     40000   40             448.15935     -18280.029      154.94638      29.568002      35.530329      48.183817      2480.7478    
     41000   41             448.49433     -18268.204      158.82623      26.101046      35.305822      48.183817      2480.7478    
     42000   42             442.50289     -18273.103      162.6207       42.150212      35.464994      48.183817      2480.7478    
     43000   43             447.15862     -18279.695      166.54366      28.966694      35.317305      48.183817      2480.7478    
     44000   44             453.66243     -18266.306      170.80257      29.01111       35.177168      48.183817      2480.7478    
     45000   45             451.10551     -18272.066      174.94422      33.104626      35.132112      48.183817      2480.7478    
     46000   46             442.87166     -18278.624      178.97366      29.220732      35.006338      48.183817      2480.7478    
     47000   47             453.03394     -18261.957      182.77863      41.405049      35.139645      48.183817      2480.7478    
     48000   48             449.16565     -18267.453      186.19389      41.899935      35.27761       48.183817      2480.7478    
     49000   49             450.98308     -18266.555      190.40417      35.11102       35.274278      48.183817      2480.7478    
     50000   50             445.30055     -18280.917      194.73094      39.936033      35.365685      48.183817      2480.7478    
     51000   51             452.07392     -18263.192      198.13382      44.280775      35.537129      48.183817      2480.7478    
     52000   52             451.13837     -18269.387      202.13311      29.727734      35.427518      48.183817      2480.7478    
     53000   53             453.95176     -18260.297      206.11098      23.399253      35.204772      48.183817      2480.7478    
     54000   54             447.79428     -18272.726      209.84245      32.375814      35.153337      48.183817      2480.7478    
     55000   55             448.20656     -18278.174      213.35618      32.42733       35.104658      48.183817      2480.7478    
     56000   56             453.23519     -18265.836      217.40784      23.518072      34.901385      48.183817      2480.7478    
     57000   57             446.6976      -18275.839      221.29349      42.790758      35.037408      48.183817      2480.7478    
     58000   58             449.78726     -18273.065      225.18022      33.779705      35.016091      48.183817      2480.7478    
     59000   59             447.38771     -18271.967      229.21824      39.863536      35.096882      48.183817      2480.7478    
     60000   60             450.50601     -18271.843      232.82951      51.708646      35.369206      48.183817      2480.7478    
     61000   61             447.85064     -18280.762      236.73476      59.531546      35.758921      48.183817      2480.7478    
     62000   62             452.67824     -18278.02       240.56663      37.239714      35.782426      48.183817      2480.7478    
     63000   63             452.04683     -18262.965      244.32444      39.095853      35.834198      48.183817      2480.7478    
     64000   64             454.70272     -18268.82       248.0088       40.575811      35.907146      48.183817      2480.7478    
     65000   65             449.36477     -18274.432      251.72063      40.3029        35.973748      48.183817      2480.7478    
     66000   66             449.38001     -18261.665      255.66102      33.110977      35.93102       48.183817      2480.7478    
     67000   67             443.65932     -18281.451      259.6028       37.456563      35.953455      48.183817      2480.7478    
     68000   68             449.842       -18279.017      263.43551      30.164235      35.869553      48.183817      2480.7478    
     69000   69             448.72544     -18273.791      267.69461      46.422653      36.020312      48.183817      2480.7478    
     70000   70             448.88836     -18277.27       271.37329      29.893487      35.934018      48.183817      2480.7478    
     71000   71             445.32762     -18281.154      275.26638      38.131269      35.964536      48.183817      2480.7478    
     72000   72             454.61455     -18265.455      278.88897      34.152828      35.939718      48.183817      2480.7478    
     73000   73             452.33893     -18270.88       282.67715      32.295419      35.890471      48.183817      2480.7478    
     74000   74             448.57826     -18280.116      286.06593      41.690622      35.967806      48.183817      2480.7478    
     75000   75             450.60564     -18280.149      289.90602      41.486468      36.04042       48.183817      2480.7478    
     76000   76             451.34343     -18276.273      293.60555      47.530667      36.189644      48.183817      2480.7478    
     77000   77             447.65258     -18273.256      297.348        34.604731      36.169324      48.183817      2480.7478    
     78000   78             450.22531     -18275.568      301.40684      33.719434      36.138313      48.183817      2480.7478    
     79000   79             449.742       -18267.088      305.24627      42.126023      36.21316       48.183817      2480.7478    
     80000   80             443.77806     -18287.85       309.34866      29.841016      36.134491      48.183817      2480.7478    
     81000   81             444.20638     -18282.025      313.23848      38.280225      36.160659      48.183817      2480.7478    
     82000   82             449.52824     -18267.909      317.1799       38.688346      36.191113      48.183817      2480.7478    
     83000   83             451.68581     -18260.124      321.25736      29.153629      36.107333      48.183817      2480.7478    
     84000   84             448.46581     -18273.08       325.30482      41.455682      36.170255      48.183817      2480.7478    
     85000   85             445.72736     -18281.65       329.09592      49.725001      36.327868      48.183817      2480.7478    
     86000   86             449.46671     -18269.099      332.92864      41.798029      36.390744      48.183817      2480.7478    
     87000   87             451.68712     -18280.176      336.34869      42.987158      36.465703      48.183817      2480.7478    
     88000   88             450.63095     -18280.264      340.05226      33.354166      36.430742      48.183817      2480.7478    
     89000   89             443.07821     -18283.233      343.97083      45.747129      36.534257      48.183817      2480.7478    
     90000   90             449.2205      -18263.622      347.5859       58.8038        36.778977      48.183817      2480.7478    
     91000   91             451.03706     -18275.567      351.83407      52.236271      36.946991      48.183817      2480.7478    
     92000   92             447.36843     -18280.608      355.96038      37.296422      36.950749      48.183817      2480.7478    
     93000   93             451.64537     -18262.655      359.82312      35.922075      36.939805      48.183817      2480.7478    
     94000   94             449.36253     -18283.215      363.90839      34.023732      36.90911       48.183817      2480.7478    
     95000   95             454.2905      -18268.293      367.91089      33.894019      36.877703      48.183817      2480.7478    
     96000   96             449.36148     -18268.389      371.86336      33.632749      36.84425       48.183817      2480.7478    
     97000   97             453.41343     -18269.902      375.56875      43.447531      36.91163       48.183817      2480.7478    
     98000   98             449.70368     -18269.568      379.4969       47.021531      37.01375       48.183817      2480.7478    
     99000   99             445.24878     -18283.996      383.81043      36.503236      37.008645      48.183817      2480.7478    
    100000   100            453.99352     -18269.464      387.80939      41.998703      37.058052      48.183817      2480.7478    
    101000   101            446.00961     -18274.992      391.4884       38.843183      37.075553      48.183817      2480.7478    
    102000   102            449.73739     -18272.306      395.35296      43.508583      37.13801       48.183817      2480.7478    
    103000   103            449.21356     -18272.04       399.21868      23.32874       37.005228      48.183817      2480.7478    
    104000   104            446.26014     -18284.293      403.0671       27.19277       36.911776      48.183817      2480.7478    
    105000   105            451.67805     -18261.214      407.11754      34.677745      36.8907        48.183817      2480.7478    
    106000   106            450.60102     -18274.902      410.72464      38.324219      36.904098      48.183817      2480.7478    
    107000   107            452.22408     -18280.95       414.67231      50.238298      37.027563      48.183817      2480.7478    
    108000   108            448.40047     -18282.017      418.52649      50.559257      37.151707      48.183817      2480.7478    
    109000   109            452.65089     -18255.708      422.20655      40.356604      37.180842      48.183817      2480.7478    
    110000   110            449.43818     -18278.412      425.94957      59.349967      37.380564      48.183817      2480.7478    
    111000   111            452.33        -18264.179      430.18622      50.574934      37.498371      48.183817      2480.7478    
    112000   112            444.09022     -18282.397      434.57867      53.194655      37.637276      48.183817      2480.7478    
    113000   113            445.31773     -18284.618      439.14524      43.685871      37.690334      48.183817      2480.7478    
    114000   114            449.20571     -18268.398      442.78474      33.863958      37.657061      48.183817      2480.7478    
    115000   115            449.01135     -18270.767      446.96701      32.778446      37.615004      48.183817      2480.7478    
    116000   116            451.83746     -18277.758      450.90202      48.727203      37.70998       48.183817      2480.7478    
    117000   117            445.15395     -18288.489      454.69449      37.827815      37.710979      48.183817      2480.7478    
    118000   118            457.15029     -18273.209      458.69114      44.036918      37.764138      48.183817      2480.7478    
    119000   119            450.26809     -18278.138      462.4852       35.774455      37.747557      48.183817      2480.7478    
    120000   120            446.8261      -18278.34       466.20565      43.827079      37.797801      48.183817      2480.7478    
    121000   121            452.54922     -18265.583      470.1587       49.948982      37.897401      48.183817      2480.7478    
    122000   122            451.19311     -18274.315      473.68873      43.946056      37.946577      48.183817      2480.7478    
    123000   123            453.21616     -18282.193      477.54196      36.884466      37.938011      48.183817      2480.7478    
    124000   124            450.61898     -18281.407      481.81731      39.038643      37.946817      48.183817      2480.7478    
    125000   125            450.84234     -18271.377      485.37864      44.888377      38.001908      48.183817      2480.7478    
    126000   126            451.58552     -18279.034      489.13628      26.740299      37.913234      48.183817      2480.7478    
    127000   127            448.94638     -18274.301      492.73778      32.066111      37.867554      48.183817      2480.7478    
    128000   128            448.35534     -18280.249      496.14931      24.596526      37.764677      48.183817      2480.7478    
    129000   129            448.75965     -18274.118      499.7577       34.213398      37.73736       48.183817      2480.7478    
    130000   130            448.69268     -18266.513      503.53261      40.920958      37.761662      48.183817      2480.7478    
    131000   131            444.54327     -18294.654      507.59121      45.815309      37.822675      48.183817      2480.7478    
    132000   132            449.6529      -18267.734      511.30958      55.284035      37.953963      48.183817      2480.7478    
    133000   133            451.20765     -18272.657      514.93835      28.241785      37.881484      48.183817      2480.7478    
    134000   134            444.13957     -18275.643      518.60007      34.877156      37.85923       48.183817      2480.7478    
    135000   135            454.90614     -18263.699      522.29875      36.919957      37.852323      48.183817      2480.7478    
    136000   136            448.30661     -18272.785      525.94777      28.863338      37.78671       48.183817      2480.7478    
    137000   137            452.86572     -18255.354      529.23004      33.308194      37.754257      48.183817      2480.7478    
    138000   138            452.18426     -18271.121      532.56328      36.044875      37.74196       48.183817      2480.7478    
    139000   139            448.78819     -18276.307      536.23125      39.167243      37.75214       48.183817      2480.7478    
    140000   140            459.62311     -18253.811      540.23632      41.974713      37.782088      48.183817      2480.7478    
    141000   141            449.30955     -18279.918      544.05185      30.824067      37.733087      48.183817      2480.7478    
    142000   142            454.11242     -18260.189      547.56839      26.138684      37.652008      48.183817      2480.7478    
    143000   143            451.43094     -18271.453      551.13611      26.74556       37.576268      48.183817      2480.7478    
    144000   144            448.55167     -18282.17       555.21065      25.237232      37.491172      48.183817      2480.7478    
    145000   145            449.9999      -18276.935      559.06442      36.412105      37.483781      48.183817      2480.7478    
    146000   146            451.06963     -18271.761      562.9683       27.756666      37.41761       48.183817      2480.7478    
    147000   147            448.8422      -18281.409      567.02458      28.81335       37.359473      48.183817      2480.7478    
    148000   148            447.88066     -18272.229      570.51539      47.860145      37.429947      48.183817      2480.7478    
    149000   149            443.33764     -18294.617      574.35904      27.226478      37.361924      48.183817      2480.7478    
    150000   150            449.96098     -18270.104      577.85376      40.967985      37.385805      48.183817      2480.7478    
    151000   151            455.20752     -18260.575      582.0943       20.854371      37.277046      48.183817      2480.7478    
    152000   152            446.66596     -18283.065      585.88828      30.144914      37.230431      48.183817      2480.7478    
    153000   153            449.11876     -18277.212      589.69471      46.197196      37.288656      48.183817      2480.7478    
    154000   154            451.40203     -18287.01       593.48956      44.312893      37.333974      48.183817      2480.7478    
    155000   155            451.58093     -18272.644      596.71206      43.55943       37.373881      48.183817      2480.7478    
    156000   156            450.06875     -18281.01       600.13485      44.508436      37.419324      48.183817      2480.7478    
    157000   157            454.66804     -18274.809      603.73763      41.69189       37.446365      48.183817      2480.7478    
    158000   158            452.41134     -18266.446      607.45479      38.896557      37.455486      48.183817      2480.7478    
    159000   159            450.78711     -18278.474      611.41536      47.303552      37.517037      48.183817      2480.7478    
    160000   160            455.00665     -18259.924      615.52926      42.255855      37.54647       48.183817      2480.7478    
    161000   161            448.48692     -18282.099      619.13057      35.272953      37.532436      48.183817      2480.7478    
    162000   162            452.00955     -18266.348      622.75824      32.931913      37.504212      48.183817      2480.7478    
    163000   163            445.1147      -18282.966      626.225        48.635504      37.572086      48.183817      2480.7478    
    164000   164            453.24518     -18270.114      629.82354      39.802208      37.585602      48.183817      2480.7478    
    165000   165            449.6565      -18281.887      633.44059      44.043306      37.624504      48.183817      2480.7478    
    166000   166            456.60082     -18260.78       636.86117      41.965065      37.650495      48.183817      2480.7478    
    167000   167            447.47743     -18282.246      640.44283      31.884373      37.616173      48.183817      2480.7478    
    168000   168            455.63245     -18279.679      643.85326      21.21726       37.519138      48.183817      2480.7478    
    169000   169            453.57598     -18265.044      647.98792      20.942093      37.421626      48.183817      2480.7478    
    170000   170            451.84118     -18268.073      651.77389      44.452799      37.462744      48.183817      2480.7478    
    171000   171            452.6683      -18270.129      655.51339      51.685873      37.545436      48.183817      2480.7478    
    172000   172            449.0208      -18281.945      659.27736      45.573459      37.591841      48.183817      2480.7478    
    173000   173            448.6967      -18271.767      662.60247      43.714084      37.627026      48.183817      2480.7478    
    174000   174            446.21652     -18283.084      666.42335      53.379317      37.71704       48.183817      2480.7478    
    175000   175            450.91722     -18269.925      670.19806      53.792134      37.808375      48.183817      2480.7478    
    176000   176            448.35872     -18276.692      674.3703       41.075395      37.826833      48.183817      2480.7478    
    177000   177            455.40697     -18266.805      678.32602      43.947104      37.861217      48.183817      2480.7478    
    178000   178            446.91152     -18281.97       682.27933      45.721118      37.905127      48.183817      2480.7478    
    179000   179            454.51498     -18266.222      686.46747      34.414419      37.885734      48.183817      2480.7478    
    180000   180            453.45159     -18265.769      689.84343      38.842366      37.891019      48.183817      2480.7478    
    181000   181            451.8975      -18276.194      693.71457      37.183116      37.887129      48.183817      2480.7478    
    182000   182            448.02705     -18277.885      697.59173      38.655716      37.891329      48.183817      2480.7478    
    183000   183            452.33919     -18267.661      701.26492      46.974322      37.940693      48.183817      2480.7478    
    184000   184            445.15339     -18269.148      705.08336      38.457719      37.943488      48.183817      2480.7478    
    185000   185            445.59266     -18281.122      708.99043      34.275546      37.923768      48.183817      2480.7478    
    186000   186            453.73517     -18270.941      712.84285      28.620088      37.874016      48.183817      2480.7478    
    187000   187            451.5121      -18269.557      716.69689      32.273172      37.844224      48.183817      2480.7478    
    188000   188            446.47933     -18286.156      720.67584      24.642417      37.774373      48.183817      2480.7478    
    189000   189            451.14266     -18268.655      724.41811      32.58303       37.74705       48.183817      2480.7478    
    190000   190            447.08468     -18274.746      728.27801      38.421379      37.750581      48.183817      2480.7478    
    191000   191            447.71106     -18286.092      732.17133      23.418016      37.675932      48.183817      2480.7478    
    192000   192            451.3793      -18266.799      736.49502      34.501879      37.659486      48.183817      2480.7478    
    193000   193            450.7763      -18274.462      740.22005      31.636035      37.628438      48.183817      2480.7478    
    194000   194            453.81855     -18263.809      744.19961      41.762477      37.649638      48.183817      2480.7478    
    195000   195            445.06498     -18271.984      747.93467      45.445607      37.689413      48.183817      2480.7478    
    196000   196            452.22067     -18273.242      751.93467      48.749585      37.745556      48.183817      2480.7478    
    197000   197            458.65659     -18258.722      755.72955      52.755521      37.821364      48.183817      2480.7478    
    198000   198            444.29232     -18276.884      759.04472      56.316036      37.914302      48.183817      2480.7478    
    199000   199            450.29086     -18265.901      763.11929      57.03022       38.009882      48.183817      2480.7478    
    200000   200            451.18275     -18269.23       766.93288      53.517598      38.087034      48.183817      2480.7478    
    201000   201            443.2201      -18285.454      770.30414      46.643669      38.129394      48.183817      2480.7478    
    202000   202            447.53136     -18270.414      774.15446      58.932243      38.231871      48.183817      2480.7478    
    203000   203            447.18785     -18293.233      777.94625      57.134597      38.324532      48.183817      2480.7478    
    204000   204            449.91117     -18268.769      781.49671      52.071777      38.391591      48.183817      2480.7478    
    205000   205            445.80036     -18274.88       785.49278      61.224298      38.50243       48.183817      2480.7478    
    206000   206            445.15377     -18283.069      789.27795      60.797109      38.610133      48.183817      2480.7478    
    207000   207            449.09211     -18270.398      792.74609      50.174302      38.66573       48.183817      2480.7478    
    208000   208            447.65282     -18280.005      796.6081       42.853285      38.685767      48.183817      2480.7478    
    209000   209            439.46204     -18289.118      799.98983      45.540641      38.718409      48.183817      2480.7478    
    210000   210            452.26773     -18270.939      803.70852      41.259512      38.730452      48.183817      2480.7478    
    211000   211            451.37678     -18266.285      807.98779      35.118633      38.713415      48.183817      2480.7478    
    212000   212            452.28715     -18264.059      812.20306      37.953956      38.70985       48.183817      2480.7478    
    213000   213            448.27105     -18280.55       815.82844      30.103834      38.669635      48.183817      2480.7478    
    214000   214            452.28372     -18280.859      819.57001      46.739442      38.707169      48.183817      2480.7478    
    215000   215            449.11323     -18279.784      823.09358      41.806916      38.721519      48.183817      2480.7478    
    216000   216            450.10174     -18270.609      827.16431      45.270768      38.7517        48.183817      2480.7478    
    217000   217            449.43257     -18269.978      830.58427      48.182505      38.794961      48.183817      2480.7478    
    218000   218            441.8361      -18277.214      834.27387      49.28718       38.84287       48.183817      2480.7478    
    219000   219            452.09419     -18273.356      837.8814       40.952807      38.852461      48.183817      2480.7478    
    220000   220            447.83993     -18277.425      841.38592      38.254102      38.849753      48.183817      2480.7478    
    221000   221            445.39128     -18280.284      845.07886      36.798138      38.840512      48.183817      2480.7478    
    222000   222            447.72992     -18278.408      849.03666      46.980481      38.877014      48.183817      2480.7478    
    223000   223            453.15883     -18257.371      852.83603      35.619523      38.862472      48.183817      2480.7478    
    224000   224            453.39889     -18265.496      856.90421      30.708482      38.826232      48.183817      2480.7478    
    225000   225            451.88702     -18269.707      860.48053      33.496197      38.802647      48.183817      2480.7478    
    226000   226            448.1175      -18272.478      864.10036      37.110342      38.795192      48.183817      2480.7478    
    227000   227            457.47789     -18257.74       867.89432      29.06209       38.752503      48.183817      2480.7478    
    228000   228            451.32308     -18272.842      871.8359       23.330861      38.68516       48.183817      2480.7478    
    229000   229            456.62003     -18268.933      875.86324      29.736653      38.646253      48.183817      2480.7478    
    230000   230            448.79872     -18284.923      879.41583      25.836827      38.590801      48.183817      2480.7478    
    231000   231            448.94878     -18266.495      882.82958      24.504874      38.530086      48.183817      2480.7478    
    232000   232            453.30922     -18260.156      886.38961      26.23309       38.477309      48.183817      2480.7478    
    233000   233            450.69069     -18269.375      890.18867      31.337756      38.446798      48.183817      2480.7478    
    234000   234            447.72537     -18284.132      893.87951      29.194946      38.407429      48.183817      2480.7478    
    235000   235            448.95229     -18271.771      897.42093      33.864267      38.388178      48.183817      2480.7478    
    236000   236            451.48169     -18261.849      901.49904      32.855287      38.364833      48.183817      2480.7478    
    237000   237            447.32966     -18277.157      905.91757      32.737589      38.341189      48.183817      2480.7478    
    238000   238            452.81732     -18268.077      909.60992      39.871757      38.347593      48.183817      2480.7478    
    239000   239            449.02854     -18267.155      912.84669      34.628095      38.332095      48.183817      2480.7478    
    240000   240            445.93025     -18287.784      916.55925      30.438429      38.299341      48.183817      2480.7478    
    241000   241            454.25009     -18263.111      920.28473      38.30432       38.299362      48.183817      2480.7478    
    242000   242            451.19826     -18280.856      923.75329      40.722991      38.309335      48.183817      2480.7478    
    243000   243            452.05163     -18261.036      927.58452      42.655004      38.327146      48.183817      2480.7478    
    244000   244            454.57718     -18266.311      931.31456      38.745831      38.328854      48.183817      2480.7478    
    245000   245            450.35142     -18277.665      935.02829      45.23024       38.356909      48.183817      2480.7478    
    246000   246            456.68647     -18272          939.10992      51.326944      38.409419      48.183817      2480.7478    
    247000   247            445.37501     -18275.862      943.14502      45.467398      38.437879      48.183817      2480.7478    
    248000   248            448.56477     -18285.431      946.9245       30.296353      38.405182      48.183817      2480.7478    
    249000   249            449.70116     -18278.705      950.90431      24.324669      38.34886       48.183817      2480.7478    
    250000   250            451.56303     -18274.801      954.55027      44.222221      38.37226       48.183817      2480.7478    
    251000   251            446.27089     -18288.504      958.15072      41.355489      38.384098      48.183817      2480.7478    
    252000   252            453.34627     -18271.447      961.75589      36.835426      38.377977      48.183817      2480.7478    
    253000   253            444.65756     -18291.269      965.82688      48.914694      38.41946       48.183817      2480.7478    
    254000   254            452.42697     -18268.892      969.32569      35.665798      38.408661      48.183817      2480.7478    
    255000   255            448.92584     -18269.63       972.80631      35.639071      38.397842      48.183817      2480.7478    
    256000   256            446.97072     -18274.865      976.46565      47.896827      38.434803      48.183817      2480.7478    
    257000   257            449.7547      -18278.117      980.27982      33.983669      38.417551      48.183817      2480.7478    
    258000   258            449.51684     -18264.83       984.27838      41.732876      38.430351      48.183817      2480.7478    
    259000   259            448.44432     -18284.168      987.57453      47.660533      38.465852      48.183817      2480.7478    
    260000   260            456.72164     -18266.878      991.16642      34.362824      38.450132      48.183817      2480.7478    
    261000   261            452.66242     -18275.685      994.79723      43.452278      38.469224      48.183817      2480.7478    
    262000   262            454.01972     -18264.728      998.69294      29.309125      38.434395      48.183817      2480.7478    
    263000   263            446.85807     -18281.281      1002.8762      37.18451       38.42966       48.183817      2480.7478    
    264000   264            455.76722     -18256.872      1006.6838      29.21687       38.394895      48.183817      2480.7478    
    265000   265            449.20387     -18277.726      1010.2336      43.06656       38.412458      48.183817      2480.7478    
    266000   266            455.00329     -18265.05       1014.4257      59.639248      38.491959      48.183817      2480.7478    
    267000   267            444.07899     -18283.612      1018.2776      52.328024      38.543586      48.183817      2480.7478    
    268000   268            446.93016     -18271.758      1021.6134      39.351682      38.54659       48.183817      2480.7478    
    269000   269            445.25894     -18283.655      1025.3589      36.360714      38.538494      48.183817      2480.7478    
    270000   270            453.55427     -18267.744      1029.2673      49.065605      38.577339      48.183817      2480.7478    
    271000   271            453.09959     -18265.289      1032.8064      51.693874      38.625562      48.183817      2480.7478    
    272000   272            445.07596     -18275.467      1036.3616      46.123696      38.653028      48.183817      2480.7478    
    273000   273            451.38356     -18260.474      1040.3221      58.959424      38.727139      48.183817      2480.7478    
    274000   274            449.59666     -18274.229      1044.0253      56.710117      38.792531      48.183817      2480.7478    
    275000   275            443.97023     -18282.039      1047.6779      33.187158      38.772222      48.183817      2480.7478    
    276000   276            452.4756      -18259.546      1051.3223      49.451843      38.810777      48.183817      2480.7478    
    277000   277            449.25485     -18278.481      1055.1948      38.170127      38.808472      48.183817      2480.7478    
    278000   278            451.36216     -18271.929      1059.1676      44.423102      38.828596      48.183817      2480.7478    
    279000   279            443.9218      -18297.042      1062.9888      35.761883      38.817644      48.183817      2480.7478    
    280000   280            454.96623     -18272.787      1066.4754      33.81545       38.799842      48.183817      2480.7478    
    281000   281            449.48156     -18278.017      1070.2379      34.823855      38.785743      48.183817      2480.7478    
    282000   282            448.08461     -18282.686      1074.3903      36.260132      38.776819      48.183817      2480.7478    
    283000   283            449.32604     -18284.374      1078.1088      35.308733      38.764607      48.183817      2480.7478    
    284000   284            451.49194     -18265.785      1081.9949      40.073339      38.769199      48.183817      2480.7478    
    285000   285            449.71292     -18275.421      1085.8659      27.478377      38.729721      48.183817      2480.7478    
    286000   286            449.07357     -18278.616      1089.5669      34.125428      38.713678      48.183817      2480.7478    
    287000   287            448.31026     -18288.944      1093.7397      33.859514      38.696823      48.183817      2480.7478    
    288000   288            450.17927     -18281.432      1097.8028      36.264333      38.688406      48.183817      2480.7478    
    289000   289            448.60886     -18273.63       1101.5232      27.775403      38.650775      48.183817      2480.7478    
    290000   290            452.13811     -18267.504      1105.5839      33.671555      38.633664      48.183817      2480.7478    
    291000   291            447.5968      -18284.692      1109.9044      31.22757       38.608301      48.183817      2480.7478    
    292000   292            453.41641     -18274.125      1113.8856      39.346965      38.610822      48.183817      2480.7478    
    293000   293            451.63411     -18280.955      1117.9712      30.504777      38.58325       48.183817      2480.7478    
    294000   294            452.11183     -18271.17       1122.3266      37.761848      38.580466      48.183817      2480.7478    
    295000   295            454.99801     -18267.554      1125.7267      28.301075      38.545738      48.183817      2480.7478    
    296000   296            452.0651      -18269.875      1129.3598      44.288858      38.565076      48.183817      2480.7478    
    297000   297            448.80535     -18277.674      1133.3432      49.475092      38.601686      48.183817      2480.7478    
    298000   298            450.32727     -18286.777      1136.7854      43.206421      38.617087      48.183817      2480.7478    
    299000   299            451.02664     -18266.4        1140.574       43.069404      38.631928      48.183817      2480.7478    
    300000   300            450.12005     -18273.179      1144.1071      44.336317      38.650879      48.183817      2480.7478    
    301000   301            443.42795     -18283.408      1147.62        42.382702      38.663236      48.183817      2480.7478    
    302000   302            448.68457     -18275.298      1151.3257      32.70691       38.643578      48.183817      2480.7478    
    303000   303            446.34518     -18281.27       1155.0919      44.726586      38.663588      48.183817      2480.7478    
    304000   304            446.89747     -18275.17       1159.1511      42.637422      38.676617      48.183817      2480.7478    
    305000   305            453.44908     -18269.9        1162.9784      44.920947      38.697024      48.183817      2480.7478    
    306000   306            446.82838     -18278.834      1166.8652      47.609402      38.726054      48.183817      2480.7478    
    307000   307            449.54847     -18272.176      1170.7073      48.368714      38.757361      48.183817      2480.7478    
    308000   308            448.64802     -18271.009      1174.6133      49.690292      38.792743      48.183817      2480.7478    
    309000   309            444.75362     -18285.853      1178.1566      50.539264      38.830635      48.183817      2480.7478    
    310000   310            446.33878     -18269.011      1181.8529      54.194655      38.880037      48.183817      2480.7478    
    311000   311            458.51182     -18255.341      1185.4267      53.794018      38.927838      48.183817      2480.7478    
    312000   312            450.31073     -18276.008      1189.0863      48.504363      38.958434      48.183817      2480.7478    
    313000   313            449.47478     -18273.839      1192.8208      51.112278      38.997141      48.183817      2480.7478    
    314000   314            446.61715     -18281.982      1196.9961      32.598673      38.976828      48.183817      2480.7478    
    315000   315            448.21882     -18278.492      1200.6109      42.027591      38.986483      48.183817      2480.7478    
    316000   316            450.89045     -18273.196      1204.3234      43.398243      39.0004        48.183817      2480.7478    
    317000   317            448.83037     -18260.686      1207.9235      45.596117      39.021141      48.183817      2480.7478    
    318000   318            449.71077     -18277.698      1211.4709      53.05085       39.065121      48.183817      2480.7478    
    319000   319            450.95168     -18277.177      1215.4808      48.126598      39.093438      48.183817      2480.7478    
    320000   320            455.32019     -18253.524      1219.2151      41.216486      39.100052      48.183817      2480.7478    
    321000   321            449.25102     -18274.426      1222.4281      46.657017      39.123521      48.183817      2480.7478    
    322000   322            449.99525     -18268.315      1226.3746      41.200671      39.129952      48.183817      2480.7478    
    323000   323            451.07112     -18263.028      1229.9454      37.789654      39.125815      48.183817      2480.7478    
    324000   324            447.30366     -18276.304      1233.9189      32.407746      39.105144      48.183817      2480.7478    
    325000   325            449.95519     -18272.655      1237.6299      39.577049      39.106592      48.183817      2480.7478    
    326000   326            446.35597     -18292.007      1241.6493      42.236489      39.116163      48.183817      2480.7478    
    327000   327            447.66122     -18279.34       1245.6419      39.794061      39.11823       48.183817      2480.7478    
    328000   328            451.74956     -18261.858      1250.0969      46.493775      39.140648      48.183817      2480.7478    
    329000   329            452.81883     -18266.036      1253.5233      53.067965      39.182852      48.183817      2480.7478    
    330000   330            450.61016     -18272.457      1257.0798      58.27351       39.240528      48.183817      2480.7478    
    331000   331            450.26213     -18279.916      1260.7504      34.744509      39.226986      48.183817      2480.7478    
    332000   332            453.02029     -18258.95       1264.8654      34.361831      39.212376      48.183817      2480.7478    
    333000   333            453.51402     -18276.227      1268.1149      49.290879      39.242551      48.183817      2480.7478    
    334000   334            446.00582     -18287.053      1272.3703      38.251349      39.239592      48.183817      2480.7478    
    335000   335            453.85896     -18264.504      1276.4484      32.454603      39.219398      48.183817      2480.7478    
    336000   336            449.83312     -18281.698      1279.7932      45.314499      39.237485      48.183817      2480.7478    
    337000   337            454.17384     -18258.897      1283.8937      41.560185      39.244357      48.183817      2480.7478    
    338000   338            453.45706     -18269.615      1287.8211      49.059361      39.273309      48.183817      2480.7478    
    339000   339            450.00005     -18275.972      1291.7089      42.776832      39.283614      48.183817      2480.7478    
    340000   340            443.52154     -18280.23       1295.5167      49.113472      39.312441      48.183817      2480.7478    
    341000   341            448.28279     -18288.959      1299.0217      44.858653      39.328658      48.183817      2480.7478    
    342000   342            451.51189     -18273.885      1303.1935      44.083655      39.34252       48.183817      2480.7478    
    343000   343            444.3611      -18283.703      1306.7165      40.958667      39.347219      48.183817      2480.7478    
    344000   344            449.33536     -18261.629      1310.6674      41.425971      39.353244      48.183817      2480.7478    
    345000   345            453.80514     -18267.017      1314.2859      48.078504      39.378461      48.183817      2480.7478    
    346000   346            446.58887     -18288.382      1317.977       25.729923      39.339129      48.183817      2480.7478    
    347000   347            448.93182     -18276.38       1321.8013      26.832268      39.303189      48.183817      2480.7478    
    348000   348            451.15203     -18258.822      1325.681       29.227233      39.274318      48.183817      2480.7478    
    349000   349            447.93304     -18275.785      1329.1078      44.337006      39.288783      48.183817      2480.7478    
    350000   350            453.96118     -18258.057      1332.9919      44.911562      39.304802      48.183817      2480.7478    
    351000   351            448.64036     -18273.899      1336.6314      51.495625      39.339435      48.183817      2480.7478    
    352000   352            442.00031     -18293.816      1340.5981      40.624102      39.343075      48.183817      2480.7478    
    353000   353            446.99378     -18270.646      1344.4245      38.127994      39.339642      48.183817      2480.7478    
    354000   354            449.52811     -18272.989      1348.336       31.140712      39.316547      48.183817      2480.7478    
    355000   355            451.94317     -18263.97       1352.2275      41.628435      39.323041      48.183817      2480.7478    
    356000   356            449.43926     -18276.131      1355.9908      47.418801      39.345718      48.183817      2480.7478    
    357000   357            452.91364     -18267.61       1359.4786      46.136669      39.364687      48.183817      2480.7478    
    358000   358            451.45813     -18269.133      1363.502       43.537623      39.376311      48.183817      2480.7478    
    359000   359            450.0266      -18273.337      1367.4449      34.156676      39.361812      48.183817      2480.7478    
    360000   360            450.69204     -18264.385      1371.7196      35.452463      39.350983      48.183817      2480.7478    
    361000   361            452.57779     -18277.245      1375.6528      39.695261      39.351934      48.183817      2480.7478    
    362000   362            456.51113     -18260.079      1379.4485      37.001691      39.345459      48.183817      2480.7478    
    363000   363            455.44064     -18264.381      1382.9331      43.046557      39.355627      48.183817      2480.7478    
    364000   364            446.53903     -18273.752      1386.784       33.172322      39.338687      48.183817      2480.7478    
    365000   365            449.79796     -18275.09       1390.6952      36.627787      39.33128       48.183817      2480.7478    
    366000   366            449.09579     -18271.396      1394.5071      33.616642      39.315709      48.183817      2480.7478    
    367000   367            451.7144      -18269.443      1398.5197      36.499842      39.308057      48.183817      2480.7478    
    368000   368            448.39194     -18276.141      1402.1733      46.841111      39.328471      48.183817      2480.7478    
    369000   369            449.64155     -18272.904      1406.4275      44.763419      39.343161      48.183817      2480.7478    
    370000   370            451.77946     -18273.809      1410.1167      41.581903      39.349195      48.183817      2480.7478    
    371000   371            447.26481     -18282.734      1413.7384      43.739704      39.360997      48.183817      2480.7478    
    372000   372            451.16166     -18269.297      1417.4123      59.407659      39.414742      48.183817      2480.7478    
    373000   373            444.30097     -18276.656      1421.3003      41.999229      39.421652      48.183817      2480.7478    
    374000   374            446.84232     -18279.02       1425.1876      39.788596      39.422631      48.183817      2480.7478    
    375000   375            450.48773     -18268.604      1429.0293      32.807641      39.405038      48.183817      2480.7478    
    376000   376            452.39762     -18263.455      1432.8988      36.287021      39.396767      48.183817      2480.7478    
    377000   377            450.87033     -18265.184      1436.6242      43.420024      39.407411      48.183817      2480.7478    
    378000   378            452.93385     -18272.184      1440.406       33.337285      39.391394      48.183817      2480.7478    
    379000   379            453.03083     -18263.368      1443.8395      32.516404      39.373302      48.183817      2480.7478    
    380000   380            455.79305     -18262.781      1447.649       41.397497      39.378615      48.183817      2480.7478    
    381000   381            450.39447     -18275.702      1451.2069      49.371323      39.404774      48.183817      2480.7478    
    382000   382            454.15198     -18267.165      1454.933       44.836955      39.418957      48.183817      2480.7478    
    383000   383            451.22044     -18273.371      1458.5107      38.878347      39.417549      48.183817      2480.7478    
    384000   384            449.29858     -18284.054      1462.5919      26.19102       39.383195      48.183817      2480.7478    
    385000   385            452.2259      -18272.119      1466.2338      33.854377      39.368871      48.183817      2480.7478    
    386000   386            446.18469     -18278.639      1469.8344      52.349488      39.402413      48.183817      2480.7478    
    387000   387            450.4142      -18275.716      1473.2877      41.468947      39.407739      48.183817      2480.7478    
    388000   388            454.38224     -18259.818      1476.7606      48.819405      39.431934      48.183817      2480.7478    
    389000   389            451.05271     -18279.297      1480.4756      29.107046      39.40546       48.183817      2480.7478    
    390000   390            451.9031      -18272.416      1484.2004      36.085082      39.396968      48.183817      2480.7478    
    391000   391            451.44788     -18264.48       1487.9302      34.700235      39.384986      48.183817      2480.7478    
    392000   392            446.90029     -18274.568      1491.6402      40.058842      39.386701      48.183817      2480.7478    
    393000   393            449.76201     -18281.834      1495.847       42.506345      39.394619      48.183817      2480.7478    
    394000   394            443.84745     -18279.715      1500.0466      40.104315      39.396415      48.183817      2480.7478    
    395000   395            450.44571     -18273.066      1504.3601      49.207923      39.421192      48.183817      2480.7478    
    396000   396            449.25993     -18275.966      1508.3783      42.346788      39.428561      48.183817      2480.7478    
    397000   397            452.0707      -18273.981      1512.1897      34.766666      39.416848      48.183817      2480.7478    
    398000   398            450.5964      -18276.269      1515.7097      43.661929      39.427487      48.183817      2480.7478    
    399000   399            449.01916     -18273.254      1519.3935      45.173495      39.441852      48.183817      2480.7478    
    400000   400            446.53447     -18285.416      1523.2235      43.138069      39.45107       48.183817      2480.7478    
    401000   401            457.25246     -18255.871      1526.9209      41.508961      39.456189      48.183817      2480.7478    
    402000   402            444.95804     -18282.926      1530.4493      40.002029      39.457543      48.183817      2480.7478    
    403000   403            450.42516     -18280.936      1534.3211      40.66007       39.46052       48.183817      2480.7478    
    404000   404            452.11331     -18269.498      1538.2459      38.440025      39.458         48.183817      2480.7478    
    405000   405            451.27517     -18275.727      1541.8682      38.7761        39.456321      48.183817      2480.7478    
    406000   406            449.37825     -18271.487      1545.7347      49.31823       39.480551      48.183817      2480.7478    
    407000   407            451.30343     -18269.358      1549.4885      53.466185      39.51483       48.183817      2480.7478    
    408000   408            450.6604      -18280.853      1553.0691      53.948758      39.550121      48.183817      2480.7478    
    409000   409            449.22505     -18276.151      1556.9502      49.887819      39.575334      48.183817      2480.7478    
    410000   410            452.82466     -18273.091      1560.9112      65.464611      39.638325      48.183817      2480.7478    
    411000   411            446.88325     -18275.401      1564.8052      46.093138      39.653992      48.183817      2480.7478    
    412000   412            453.00718     -18265.547      1568.2681      44.10558       39.664771      48.183817      2480.7478    
    413000   413            449.02823     -18280.756      1571.8526      45.222254      39.678195      48.183817      2480.7478    
    414000   414            454.38316     -18266.35       1575.7123      44.470794      39.689743      48.183817      2480.7478    
    415000   415            450.17612     -18268.003      1579.5753      31.663541      39.67045       48.183817      2480.7478    
    416000   416            448.92713     -18274.847      1583.5096      28.798851      39.644379      48.183817      2480.7478    
    417000   417            450.81768     -18269.09       1587.4324      32.039789      39.626186      48.183817      2480.7478    
    418000   418            448.74662     -18279.274      1591.2244      37.951019      39.622188      48.183817      2480.7478    
    419000   419            454.65409     -18263.785      1594.9289      35.15667       39.611556      48.183817      2480.7478    
    420000   420            446.8635      -18282.869      1598.8645      27.183716      39.582036      48.183817      2480.7478    
    421000   421            446.84205     -18276.189      1602.6954      38.385035      39.579199      48.183817      2480.7478    
    422000   422            442.82451     -18291.724      1606.5803      45.866671      39.594063      48.183817      2480.7478    
    423000   423            448.54526     -18271.258      1610.6064      46.093419      39.609392      48.183817      2480.7478    
    424000   424            443.57137     -18287.021      1614.254       47.170414      39.627183      48.183817      2480.7478    
    425000   425            448.60597     -18278.758      1617.9349      41.679152      39.632         48.183817      2480.7478    
    426000   426            448.10877     -18273.164      1621.4862      43.84599       39.641868      48.183817      2480.7478    
    427000   427            450.27931     -18275.542      1625.7316      44.643395      39.653554      48.183817      2480.7478    
    428000   428            449.77303     -18275.737      1629.475       49.772226      39.677141      48.183817      2480.7478    
    429000   429            444.4377      -18275.471      1633.1329      45.66607       39.691069      48.183817      2480.7478    
    430000   430            447.08505     -18285.033      1636.6873      41.215119      39.694605      48.183817      2480.7478    
    431000   431            449.48771     -18268.182      1640.1422      31.405403      39.675417      48.183817      2480.7478    
    432000   432            452.34113     -18259.107      1644.509       42.469179      39.681869      48.183817      2480.7478    
    433000   433            447.61527     -18275.486      1648.1487      51.51684       39.709138      48.183817      2480.7478    
    434000   434            450.14185     -18274.848      1652.1578      27.206568      39.680397      48.183817      2480.7478    
    435000   435            451.72202     -18271.106      1655.5508      35.232495      39.670195      48.183817      2480.7478    
    436000   436            446.52527     -18280.952      1659.0439      40.557844      39.672226      48.183817      2480.7478    
    437000   437            446.09482     -18268.757      1662.907       27.428042      39.644272      48.183817      2480.7478    
    438000   438            449.87439     -18270.604      1666.7186      37.814254      39.640103      48.183817      2480.7478    
    439000   439            448.27776     -18279.194      1670.4098      35.412382      39.630495      48.183817      2480.7478    
    440000   440            446.91936     -18278.171      1674.3817      37.708986      39.626137      48.183817      2480.7478    
    441000   441            453.14241     -18267.078      1678.1904      35.897952      39.617703      48.183817      2480.7478    
    442000   442            449.71175     -18278.538      1682.1061      43.381219      39.626198      48.183817      2480.7478    
    443000   443            453.26412     -18264.16       1685.7063      33.394751      39.612163      48.183817      2480.7478    
    444000   444            445.67742     -18276.359      1689.0616      30.089539      39.590764      48.183817      2480.7478    
    445000   445            451.85758     -18273.27       1693.2937      38.208972      39.587666      48.183817      2480.7478    
    446000   446            448.08655     -18273.467      1696.9901      46.949433      39.604135      48.183817      2480.7478    
    447000   447            450.78925     -18289.077      1700.8897      32.331421      39.587901      48.183817      2480.7478    
    448000   448            450.02283     -18268.486      1704.6736      32.727919      39.572623      48.183817      2480.7478    
    449000   449            448.8942      -18278.131      1708.6575      37.793017      39.568668      48.183817      2480.7478    
    450000   450            450.19084     -18265.366      1712.7717      43.456628      39.577289      48.183817      2480.7478    
    451000   451            446.60172     -18280.08       1716.5308      59.399338      39.621143      48.183817      2480.7478    
    452000   452            449.60423     -18273.917      1720.1389      58.086308      39.661905      48.183817      2480.7478    
    453000   453            449.8543      -18264.975      1723.6591      61.786277      39.710637      48.183817      2480.7478    
    454000   454            449.45606     -18270.545      1727.5492      54.646512      39.743463      48.183817      2480.7478    
    455000   455            445.767       -18282.725      1731.6206      68.99422       39.80761       48.183817      2480.7478    
    456000   456            447.18331     -18274.089      1735.5061      57.938544      39.847284      48.183817      2480.7478    
    457000   457            448.80491     -18273.237      1739.0959      64.080919      39.900196      48.183817      2480.7478    
    458000   458            454.41885     -18267.392      1742.7003      58.88235       39.941551      48.183817      2480.7478    
    459000   459            454.10884     -18269.907      1746.6929      51.48945       39.966655      48.183817      2480.7478    
    460000   460            449.92925     -18277.082      1750.2616      45.621883      39.978922      48.183817      2480.7478    
    461000   461            443.88353     -18288.952      1754.5187      40.157733      39.979309      48.183817      2480.7478    
    462000   462            448.74353     -18267.526      1758.4541      26.598842      39.95041       48.183817      2480.7478    
    463000   463            455.42645     -18269.201      1762.8987      26.567465      39.921567      48.183817      2480.7478    
    464000   464            445.06829     -18284.465      1766.7276      34.35154       39.909589      48.183817      2480.7478    
    465000   465            452.68212     -18275.284      1770.3643      51.503851      39.934469      48.183817      2480.7478    
    466000   466            455.24438     -18266.132      1774.318       45.202926      39.945751      48.183817      2480.7478    
    467000   467            444.21325     -18291.522      1778.4791      43.167713      39.952635      48.183817      2480.7478    
    468000   468            452.008       -18273.925      1782.026       40.619804      39.954058      48.183817      2480.7478    
    469000   469            448.22962     -18275.578      1785.7063      28.286125      39.929232      48.183817      2480.7478    
    470000   470            444.7784      -18281.592      1789.2157      44.131018      39.938153      48.183817      2480.7478    
    471000   471            453.07371     -18270.622      1793.2817      41.507591      39.941478      48.183817      2480.7478    
    472000   472            445.40571     -18277.341      1797.0321      41.379688      39.944519      48.183817      2480.7478    
    473000   473            450.97255     -18259.446      1800.9862      40.361429      39.945399      48.183817      2480.7478    
    474000   474            451.72281     -18269.355      1804.5621      32.599893      39.929934      48.183817      2480.7478    
    475000   475            446.84465     -18278.83       1808.3631      41.270098      39.93275       48.183817      2480.7478    
    476000   476            454.16404     -18270.946      1812.2676      41.63814       39.936325      48.183817      2480.7478    
    477000   477            453.90418     -18271.407      1816.1866      32.456936      39.920678      48.183817      2480.7478    
    478000   478            445.32607     -18282.639      1819.7298      50.700534      39.943183      48.183817      2480.7478    
    479000   479            453.68507     -18255.941      1823.4924      57.59876       39.979965      48.183817      2480.7478    
    480000   480            453.00778     -18269.256      1827.0309      52.011203      40.004978      48.183817      2480.7478    
    481000   481            449.71009     -18273.221      1830.1941      50.406178      40.026557      48.183817      2480.7478    
    482000   482            449.26767     -18273.489      1834.1605      43.951766      40.034684      48.183817      2480.7478    
    483000   483            454.09579     -18262.192      1838.1573      54.890255      40.065378      48.183817      2480.7478    
    484000   484            451.71155     -18275.436      1842.5412      57.851552      40.10205       48.183817      2480.7478    
    485000   485            455.8966      -18266.226      1846.7094      58.696128      40.140309      48.183817      2480.7478    
    486000   486            449.02697     -18269.939      1850.0719      52.000465      40.164663      48.183817      2480.7478    
    487000   487            449.18763     -18266.514      1854.0457      37.427058      40.159053      48.183817      2480.7478    
    488000   488            450.99586     -18268.278      1858.1205      43.465682      40.165815      48.183817      2480.7478    
    489000   489            446.2968      -18289.127      1862.2762      40.027822      40.165534      48.183817      2480.7478    
    490000   490            449.05907     -18276.318      1865.9762      35.233631      40.155489      48.183817      2480.7478    
    491000   491            457.99125     -18254.88       1869.9008      47.522405      40.170462      48.183817      2480.7478    
    492000   492            447.41191     -18275.718      1873.7082      39.840605      40.169793      48.183817      2480.7478    
    493000   493            445.96929     -18284.958      1877.3036      38.916438      40.167256      48.183817      2480.7478    
    494000   494            453.92692     -18274.022      1880.8576      32.070605      40.150899      48.183817      2480.7478    
    495000   495            442.00752     -18289.821      1884.7409      38.614241      40.147801      48.183817      2480.7478    
    496000   496            448.5604      -18278.382      1888.7074      44.043677      40.15564       48.183817      2480.7478    
    497000   497            448.69333     -18270.201      1892.9848      36.377792      40.148054      48.183817      2480.7478    
    498000   498            450.80798     -18271.795      1897.0274      43.687107      40.155146      48.183817      2480.7478    
    499000   499            453.38348     -18270.837      1900.8271      32.528307      40.139892      48.183817      2480.7478    
    500000   500            447.70308     -18272.042      1904.6491      38.135098      40.135891      48.183817      2480.7478    
    501000   501            451.38756     -18276.465      1908.3752      44.695636      40.144974      48.183817      2480.7478    
    502000   502            449.6537      -18278.524      1912.3595      41.644645      40.147956      48.183817      2480.7478    
    503000   503            440.91316     -18287.764      1915.9755      48.802694      40.165128      48.183817      2480.7478    
    504000   504            452.22555     -18270.149      1919.8312      32.860989      40.150664      48.183817      2480.7478    
    505000   505            448.90368     -18269.076      1923.4481      39.943506      40.150255      48.183817      2480.7478    
    506000   506            448.11941     -18282.419      1927.5874      34.834946      40.139771      48.183817      2480.7478    
    507000   507            454.24804     -18261.9        1931.5821      32.468977      40.124671      48.183817      2480.7478    
    508000   508            448.67152     -18276.579      1935.3184      27.273619      40.099423      48.183817      2480.7478    
    509000   509            452.53686     -18270.925      1939.2884      30.675202      40.080944      48.183817      2480.7478    
    510000   510            450.72203     -18274.079      1943.3182      44.281108      40.089164      48.183817      2480.7478    
    511000   511            443.91768     -18294.244      1947.142       37.307362      40.083731      48.183817      2480.7478    
    512000   512            449.10124     -18270.918      1951.0483      40.605131      40.084747      48.183817      2480.7478    
    513000   513            449.61653     -18275.03       1954.539       56.638416      40.116952      48.183817      2480.7478    
    514000   514            444.88787     -18280.518      1958.2306      45.85788       40.1281        48.183817      2480.7478    
    515000   515            455.53523     -18268.175      1961.9976      50.384057      40.147976      48.183817      2480.7478    
    516000   516            449.7216      -18278.686      1965.631       56.951245      40.180477      48.183817      2480.7478    
    517000   517            456.65544     -18260.045      1969.3973      48.634146      40.196797      48.183817      2480.7478    
    518000   518            447.47023     -18275.492      1973.1209      59.236586      40.233483      48.183817      2480.7478    
    519000   519            452.39329     -18271.422      1976.4471      59.440185      40.270419      48.183817      2480.7478    
    520000   520            444.60825     -18279.152      1980.338       45.653388      40.280751      48.183817      2480.7478    
    521000   521            454.91739     -18262.177      1984.1755      59.99183       40.318511      48.183817      2480.7478    
    522000   522            451.76915     -18278.115      1988.0939      55.224167      40.347012      48.183817      2480.7478    
    523000   523            454.23076     -18263.705      1992.2962      49.808755      40.365068      48.183817      2480.7478    
    524000   524            452.06873     -18282.231      1996.0894      40.909673      40.366106      48.183817      2480.7478    
    525000   525            448.25593     -18273.179      1999.7951      42.203081      40.369598      48.183817      2480.7478    
    526000   526            456.33107     -18253.762      2003.2856      39.52856       40.368002      48.183817      2480.7478    
    527000   527            448.70223     -18282.471      2007.1896      28.774585      40.346045      48.183817      2480.7478    
    528000   528            448.16551     -18279.084      2011.4102      31.628214      40.329565      48.183817      2480.7478    
    529000   529            448.10284     -18274.352      2015.1345      45.676704      40.339654      48.183817      2480.7478    
    530000   530            442.74886     -18276.394      2019.0681      34.910557      40.32943       48.183817      2480.7478    
    531000   531            452.52944     -18263.765      2022.4984      43.593957      40.335566      48.183817      2480.7478    
    532000   532            443.94354     -18281.543      2026.3236      43.226289      40.34099       48.183817      2480.7478    
    533000   533            445.3019      -18276.825      2029.8716      43.356684      40.346637      48.183817      2480.7478    
    534000   534            449.97257     -18266.448      2033.467       38.909989      40.343952      48.183817      2480.7478    
    535000   535            450.68299     -18263.225      2037.5189      38.090279      40.339747      48.183817      2480.7478    
    536000   536            451.90288     -18262.852      2040.7198      43.685988      40.345978      48.183817      2480.7478    
    537000   537            448.52365     -18276.622      2044.5315      43.098482      40.351095      48.183817      2480.7478    
    538000   538            453.09588     -18271.395      2048.3466      50.542994      40.370003      48.183817      2480.7478    
    539000   539            452.42665     -18255.47       2052.0734      47.988677      40.384112      48.183817      2480.7478    
    540000   540            446.85133     -18273.965      2056.2146      50.753231      40.403279      48.183817      2480.7478    
    541000   541            445.40375     -18280.314      2060.1151      51.593549      40.423925      48.183817      2480.7478    
    542000   542            450.78384     -18265.08       2063.7908      59.166379      40.458441      48.183817      2480.7478    
    543000   543            450.87761     -18269.813      2067.7199      59.036321      40.492592      48.183817      2480.7478    
    544000   544            448.26217     -18277.655      2071.5477      56.484311      40.521935      48.183817      2480.7478    
    545000   545            447.5193      -18280.376      2075.0524      54.461958      40.547466      48.183817      2480.7478    
    546000   546            445.01073     -18289.595      2078.6794      47.474349      40.560129      48.183817      2480.7478    
    547000   547            449.59027     -18266.823      2082.2724      36.904408      40.553458      48.183817      2480.7478    
    548000   548            444.53898     -18279.301      2086.1023      39.695808      40.551896      48.183817      2480.7478    
    549000   549            452.64831     -18267.262      2090.0301      42.77514       40.555938      48.183817      2480.7478    
    550000   550            446.52673     -18272.68       2093.8794      43.162215      40.560668      48.183817      2480.7478    
    551000   551            447.0267      -18275.145      2097.8832      40.427976      40.560428      48.183817      2480.7478    
    552000   552            445.59486     -18276.526      2101.7619      42.087167      40.563189      48.183817      2480.7478    
    553000   553            447.7717      -18282.499      2105.6127      26.935368      40.53859       48.183817      2480.7478    
    554000   554            450.28643     -18280.076      2109.3169      39.683625      40.537049      48.183817      2480.7478    
    555000   555            449.52958     -18270.287      2112.8528      42.945795      40.541382      48.183817      2480.7478    
    556000   556            445.26016     -18283.208      2116.4251      36.927162      40.534893      48.183817      2480.7478    
    557000   557            448.96882     -18272.281      2119.9663      36.608883      40.527857      48.183817      2480.7478    
    558000   558            447.95086     -18285.49       2123.6277      39.877471      40.526693      48.183817      2480.7478    
    559000   559            451.48526     -18271.693      2127.4656      37.855542      40.521924      48.183817      2480.7478    
    560000   560            447.09494     -18282.422      2131.419       41.531643      40.523723      48.183817      2480.7478    
    561000   561            448.91636     -18274.229      2135.119       37.923154      40.519096      48.183817      2480.7478    
    562000   562            448.94263     -18272.185      2139.1951      45.308748      40.527603      48.183817      2480.7478    
    563000   563            457.69188     -18268.755      2143.0839      51.627562      40.547284      48.183817      2480.7478    
    564000   564            448.65156     -18281.025      2146.7336      41.034187      40.548146      48.183817      2480.7478    
    565000   565            452.40065     -18278.943      2150.6952      37.935844      40.543531      48.183817      2480.7478    
    566000   566            450.91664     -18264.923      2155.1558      39.756674      40.542143      48.183817      2480.7478    
    567000   567            445.08347     -18276.387      2159.1573      49.199785      40.557385      48.183817      2480.7478    
    568000   568            453.34667     -18255.187      2163.0696      50.834205      40.575446      48.183817      2480.7478    
    569000   569            447.09166     -18274.685      2166.5441      48.621008      40.589561      48.183817      2480.7478    
    570000   570            454.93476     -18259.007      2170.4333      44.705868      40.59677       48.183817      2480.7478    
    571000   571            448.6531      -18274.381      2174.7476      42.551792      40.600188      48.183817      2480.7478    
    572000   572            451.15315     -18278.236      2178.2902      38.904816      40.597229      48.183817      2480.7478    
    573000   573            455.4132      -18256.259      2181.6389      57.935677      40.627436      48.183817      2480.7478    
    574000   574            448.48124     -18280.57       2185.5615      45.161772      40.635322      48.183817      2480.7478    
    575000   575            449.73209     -18272.022      2189.954       39.552836      40.633442      48.183817      2480.7478    
    576000   576            449.87897     -18265.128      2193.5512      34.542314      40.622886      48.183817      2480.7478    
    577000   577            446.18069     -18272.831      2197.3111      48.719524      40.636894      48.183817      2480.7478    
    578000   578            450.34897     -18269.776      2201.1793      46.414201      40.646872      48.183817      2480.7478    
    579000   579            446.13621     -18281.243      2204.7142      42.509027      40.650082      48.183817      2480.7478    
    580000   580            447.77918     -18269.762      2208.2819      48.514632      40.663619      48.183817      2480.7478    
    581000   581            452.04685     -18264.706      2211.9496      48.92493       40.677813      48.183817      2480.7478    
    582000   582            452.66202     -18277.598      2215.3111      43.381965      40.682452      48.183817      2480.7478    
    583000   583            453.62791     -18256.704      2219.2927      46.423934      40.692283      48.183817      2480.7478    
    584000   584            448.53076     -18275.884      2223.1734      52.942602      40.713224      48.183817      2480.7478    
    585000   585            448.57745     -18274.075      2226.954       57.702971      40.742216      48.183817      2480.7478    
    586000   586            451.327       -18265.877      2230.8218      59.906613      40.774864      48.183817      2480.7478    
    587000   587            457.03212     -18268.641      2234.3168      51.362746      40.792871      48.183817      2480.7478    
[...]
   2860000   2860           450.65175     -18270.481      10864.01       34.5983        42.589557      48.183817      2480.7478    
   2861000   2861           444.63184     -18288.475      10867.691      26.432741      42.583912      48.183817      2480.7478    
   2862000   2862           452.9014      -18271.48       10871.537      39.931786      42.582985      48.183817      2480.7478    
   2863000   2863           443.69705     -18288.295      10875.171      42.052302      42.5828        48.183817      2480.7478    
   2864000   2864           450.88686     -18276.378      10878.89       41.167223      42.582306      48.183817      2480.7478    
   2865000   2865           448.27581     -18287.931      10882.644      51.801657      42.585523      48.183817      2480.7478    
   2866000   2866           452.37126     -18274.864      10886.314      51.136451      42.588505      48.183817      2480.7478    
   2867000   2867           449.01013     -18272.911      10890.007      47.855374      42.590342      48.183817      2480.7478    
   2868000   2868           447.32615     -18284.944      10893.616      42.945629      42.590465      48.183817      2480.7478    
   2869000   2869           452.05143     -18276.511      10897.225      47.861391      42.592302      48.183817      2480.7478    
   2870000   2870           448.64016     -18292.516      10900.823      48.437901      42.594338      48.183817      2480.7478    
   2871000   2871           451.5666      -18272.126      10904.419      54.39813       42.598448      48.183817      2480.7478    
   2872000   2872           455.10368     -18257.602      10907.893      39.640038      42.597418      48.183817      2480.7478    
   2873000   2873           448.76953     -18278.543      10911.692      40.721483      42.596766      48.183817      2480.7478    
   2874000   2874           454.53807     -18262.291      10915.85       46.932536      42.598274      48.183817      2480.7478    
   2875000   2875           448.74887     -18270.938      10919.316      46.776332      42.599726      48.183817      2480.7478    
   2876000   2876           450.09472     -18278.696      10923.219      42.345649      42.599638      48.183817      2480.7478    
   2877000   2877           446.26287     -18284.107      10926.837      52.293048      42.603006      48.183817      2480.7478    
   2878000   2878           449.64079     -18271.184      10930.453      38.251557      42.601495      48.183817      2480.7478    
   2879000   2879           458.79077     -18261.845      10933.973      47.82551       42.603309      48.183817      2480.7478    
   2880000   2880           455.98281     -18262.801      10937.753      30.440542      42.599087      48.183817      2480.7478    
   2881000   2881           452.28911     -18278.248      10941.678      35.96904       42.596786      48.183817      2480.7478    
   2882000   2882           445.41657     -18282.773      10945.516      24.281428      42.590434      48.183817      2480.7478    
   2883000   2883           453.14209     -18270.127      10949.486      26.023436      42.584689      48.183817      2480.7478    
   2884000   2884           451.14501     -18279.557      10953.675      28.107905      42.579671      48.183817      2480.7478    
   2885000   2885           449.77971     -18276.273      10957.471      27.726114      42.574524      48.183817      2480.7478    
   2886000   2886           449.64252     -18281.215      10961.05       42.918741      42.574644      48.183817      2480.7478    
   2887000   2887           450.45098     -18268.272      10964.562      46.41878       42.575975      48.183817      2480.7478    
   2888000   2888           450.68264     -18283.678      10968.213      49.35213       42.57832       48.183817      2480.7478    
   2889000   2889           457.19328     -18259.711      10971.531      50.049572      42.580905      48.183817      2480.7478    
   2890000   2890           446.04903     -18277.94       10975.349      58.124939      42.586282      48.183817      2480.7478    
   2891000   2891           448.94375     -18272.791      10978.981      47.378736      42.587939      48.183817      2480.7478    
   2892000   2892           454.97684     -18260.416      10982.799      41.764801      42.587655      48.183817      2480.7478    
   2893000   2893           446.83772     -18271.079      10986.536      45.349782      42.588609      48.183817      2480.7478    
   2894000   2894           452.60506     -18275.128      10990.062      47.183173      42.590196      48.183817      2480.7478    
   2895000   2895           452.19979     -18265.876      10993.951      46.580525      42.591574      48.183817      2480.7478    
   2896000   2896           453.12716     -18277.425      10997.673      53.932953      42.595489      48.183817      2480.7478    
   2897000   2897           450.01536     -18274.709      11001.351      40.405344      42.594733      48.183817      2480.7478    
   2898000   2898           449.87131     -18272.875      11005.163      37.472139      42.592966      48.183817      2480.7478    
   2899000   2899           448.60209     -18281.965      11008.971      52.092553      42.596242      48.183817      2480.7478    
   2900000   2900           454.82967     -18255.523      11012.442      49.460344      42.598608      48.183817      2480.7478    
   2901000   2901           447.58012     -18279.368      11016.18       37.194294      42.596746      48.183817      2480.7478    
   2902000   2902           446.54346     -18282.13       11019.794      34.115799      42.593824      48.183817      2480.7478    
   2903000   2903           451.28113     -18267.825      11023.443      34.918493      42.591181      48.183817      2480.7478    
   2904000   2904           450.41107     -18271.033      11026.888      37.420596      42.589401      48.183817      2480.7478    
   2905000   2905           448.38401     -18276.433      11030.779      39.977354      42.588503      48.183817      2480.7478    
   2906000   2906           447.4322      -18267.173      11034.941      39.742752      42.587524      48.183817      2480.7478    
   2907000   2907           447.45195     -18276.629      11038.538      45.292146      42.588454      48.183817      2480.7478    
   2908000   2908           453.61713     -18260.645      11042.035      46.122006      42.589668      48.183817      2480.7478    
   2909000   2909           449.80308     -18278.154      11045.468      39.62236       42.588649      48.183817      2480.7478    
   2910000   2910           448.46371     -18270.659      11049.46       44.334364      42.589248      48.183817      2480.7478    
   2911000   2911           450.82412     -18271.925      11053.321      47.299464      42.590866      48.183817      2480.7478    
   2912000   2912           455.16549     -18269.419      11057.164      53.235268      42.59452       48.183817      2480.7478    
   2913000   2913           452.15016     -18275.544      11061.12       48.305228      42.59648       48.183817      2480.7478    
   2914000   2914           452.66268     -18277.859      11065.175      48.362311      42.598458      48.183817      2480.7478    
   2915000   2915           440.75735     -18298.053      11069.166      42.164127      42.598309      48.183817      2480.7478    
   2916000   2916           444.71532     -18275.968      11073.096      38.253116      42.596819      48.183817      2480.7478    
   2917000   2917           449.05284     -18276.382      11076.944      40.176611      42.59599       48.183817      2480.7478    
   2918000   2918           444.52492     -18296.486      11080.497      46.21619       42.59723       48.183817      2480.7478    
   2919000   2919           449.78371     -18270.935      11084.234      42.512065      42.597201      48.183817      2480.7478    
   2920000   2920           446.5481      -18286.105      11087.966      39.923729      42.596286      48.183817      2480.7478    
   2921000   2921           450.90679     -18274.599      11091.685      41.24099       42.595822      48.183817      2480.7478    
   2922000   2922           450.2514      -18278.265      11095.385      40.899298      42.595241      48.183817      2480.7478    
   2923000   2923           450.50023     -18273.861      11098.764      56.527338      42.600006      48.183817      2480.7478    
   2924000   2924           449.16334     -18268.227      11102.744      58.818897      42.605551      48.183817      2480.7478    
   2925000   2925           446.6252      -18286.166      11106.468      53.927199      42.60942       48.183817      2480.7478    
   2926000   2926           448.52326     -18279.89       11110.089      56.014367      42.614         48.183817      2480.7478    
   2927000   2927           453.21643     -18266.781      11113.506      56.536079      42.618755      48.183817      2480.7478    
   2928000   2928           447.23031     -18278.891      11117.302      55.580303      42.62318       48.183817      2480.7478    
   2929000   2929           449.58139     -18276.989      11121.202      62.703624      42.630034      48.183817      2480.7478    
   2930000   2930           452.10214     -18275.509      11125.136      48.320154      42.631975      48.183817      2480.7478    
   2931000   2931           452.40614     -18272.194      11128.479      52.878425      42.63547       48.183817      2480.7478    
   2932000   2932           445.76137     -18285.001      11131.952      41.503404      42.635084      48.183817      2480.7478    
   2933000   2933           446.16088     -18279.356      11135.771      46.512247      42.636405      48.183817      2480.7478    
   2934000   2934           453.0947      -18267.825      11139.435      42.929205      42.636505      48.183817      2480.7478    
   2935000   2935           447.50164     -18282.182      11143.364      58.873548      42.642035      48.183817      2480.7478    
   2936000   2936           451.25927     -18276.566      11146.731      60.988026      42.648282      48.183817      2480.7478    
   2937000   2937           444.59397     -18276.334      11150.784      48.226795      42.65018       48.183817      2480.7478    
   2938000   2938           454.6363      -18272.446      11154.426      42.238056      42.65004       48.183817      2480.7478    
   2939000   2939           451.30341     -18279.559      11157.997      42.63197       42.650034      48.183817      2480.7478    
   2940000   2940           446.14617     -18281.072      11161.892      40.687143      42.649367      48.183817      2480.7478    
   2941000   2941           444.97399     -18284.749      11165.916      51.608552      42.652412      48.183817      2480.7478    
   2942000   2942           443.26885     -18284.473      11169.731      48.412158      42.654369      48.183817      2480.7478    
   2943000   2943           458.03668     -18262.326      11173.547      59.449497      42.660074      48.183817      2480.7478    
   2944000   2944           448.36906     -18282.027      11177.547      52.640865      42.663463      48.183817      2480.7478    
   2945000   2945           445.02155     -18284.556      11181.174      65.778319      42.671309      48.183817      2480.7478    
   2946000   2946           452.24235     -18269.449      11185.356      55.270413      42.675584      48.183817      2480.7478    
   2947000   2947           448.06943     -18280.99       11188.941      62.327868      42.682251      48.183817      2480.7478    
   2948000   2948           450.62193     -18273.726      11192.594      69.759953      42.691433      48.183817      2480.7478    
   2949000   2949           449.40936     -18289.312      11196.438      55.812332      42.69588       48.183817      2480.7478    
   2950000   2950           448.97704     -18276.036      11200.308      53.938248      42.69969       48.183817      2480.7478    
   2951000   2951           448.83174     -18286.763      11204.218      60.692521      42.705785      48.183817      2480.7478    
   2952000   2952           450.18838     -18277.126      11207.951      61.198563      42.712048      48.183817      2480.7478    
   2953000   2953           450.47558     -18278.549      11211.609      42.577648      42.712002      48.183817      2480.7478    
   2954000   2954           450.86553     -18268.408      11215.501      49.138485      42.714177      48.183817      2480.7478    
   2955000   2955           452.3651      -18279.501      11219.123      43.133277      42.714319      48.183817      2480.7478    
   2956000   2956           454.27867     -18268.76       11222.6        48.618015      42.716315      48.183817      2480.7478    
   2957000   2957           451.68401     -18281.425      11226.201      48.879573      42.718399      48.183817      2480.7478    
   2958000   2958           446.56359     -18275.165      11230.02       42.413223      42.718296      48.183817      2480.7478    
   2959000   2959           447.72213     -18287.768      11233.816      49.172443      42.720476      48.183817      2480.7478    
   2960000   2960           450.21859     -18274.592      11237.955      65.426347      42.728144      48.183817      2480.7478    
   2961000   2961           450.96155     -18273.179      11241.694      56.595228      42.732826      48.183817      2480.7478    
   2962000   2962           451.86535     -18273.571      11245.651      40.689693      42.732137      48.183817      2480.7478    
   2963000   2963           457.85396     -18272.193      11249.282      41.913191      42.73186       48.183817      2480.7478    
   2964000   2964           444.22911     -18280.112      11252.884      23.2295        42.725283      48.183817      2480.7478    
   2965000   2965           446.7294      -18276.021      11256.364      34.562491      42.722531      48.183817      2480.7478    
   2966000   2966           453.24801     -18265.1        11260.141      32.051661      42.718934      48.183817      2480.7478    
   2967000   2967           445.31968     -18283.825      11264.165      37.162193      42.717062      48.183817      2480.7478    
   2968000   2968           444.48751     -18289.039      11267.696      36.65681       42.715021      48.183817      2480.7478    
   2969000   2969           451.38976     -18274.113      11272.431      29.771547      42.710663      48.183817      2480.7478    
   2970000   2970           445.52399     -18285.493      11275.766      18.206271      42.702415      48.183817      2480.7478    
   2971000   2971           449.45794     -18281.509      11279.945      26.878986      42.697091      48.183817      2480.7478    
   2972000   2972           451.76903     -18271.532      11284.041      40.87196       42.696477      48.183817      2480.7478    
   2973000   2973           451.676       -18274.494      11287.761      35.994579      42.694223      48.183817      2480.7478    
   2974000   2974           451.59046     -18280.043      11291.471      34.270926      42.691392      48.183817      2480.7478    
   2975000   2975           450.69571     -18276.536      11295.061      48.040425      42.693189      48.183817      2480.7478    
   2976000   2976           455.31274     -18274.046      11298.841      33.640839      42.690148      48.183817      2480.7478    
   2977000   2977           452.25465     -18276.782      11302.679      45.335851      42.691037      48.183817      2480.7478    
   2978000   2978           450.00153     -18272.37       11306.382      28.594581      42.686305      48.183817      2480.7478    
   2979000   2979           446.14474     -18282.45       11310.599      32.118716      42.682759      48.183817      2480.7478    
   2980000   2980           444.89132     -18292.492      11314.298      41.924032      42.682504      48.183817      2480.7478    
   2981000   2981           453.34599     -18273.863      11318.204      34.402071      42.679727      48.183817      2480.7478    
   2982000   2982           449.10576     -18274.951      11321.757      24.426268      42.673608      48.183817      2480.7478    
   2983000   2983           451.95774     -18267.027      11325.967      39.280785      42.672471      48.183817      2480.7478    
   2984000   2984           448.17149     -18282.954      11329.689      39.885389      42.671538      48.183817      2480.7478    
   2985000   2985           454.22652     -18267.256      11333.239      53.768049      42.675254      48.183817      2480.7478    
   2986000   2986           444.81716     -18288.253      11337.435      55.985525      42.67971       48.183817      2480.7478    
   2987000   2987           454.42804     -18265.975      11341.222      52.951955      42.683148      48.183817      2480.7478    
   2988000   2988           448.37061     -18269.339      11345.343      51.222456      42.686005      48.183817      2480.7478    
   2989000   2989           445.99741     -18280.293      11349.369      41.705932      42.685677      48.183817      2480.7478    
   2990000   2990           455.82879     -18268.606      11353.387      31.286521      42.681866      48.183817      2480.7478    
   2991000   2991           449.30925     -18273.059      11356.939      34.645179      42.67918       48.183817      2480.7478    
   2992000   2992           445.41816     -18276.96       11360.379      34.866345      42.676569      48.183817      2480.7478    
   2993000   2993           450.03011     -18272.719      11364.185      50.649624      42.679232      48.183817      2480.7478    
   2994000   2994           445.99237     -18285.051      11367.867      44.691377      42.679904      48.183817      2480.7478    
   2995000   2995           450.06748     -18275.086      11371.731      59.632924      42.685563      48.183817      2480.7478    
   2996000   2996           448.03723     -18281.88       11375.895      53.685527      42.689233      48.183817      2480.7478    
   2997000   2997           443.75181     -18286.999      11379.629      53.90454       42.692974      48.183817      2480.7478    
   2998000   2998           449.1555      -18271.148      11383.547      37.439759      42.691222      48.183817      2480.7478    
   2999000   2999           449.20025     -18273.882      11387.107      33.048121      42.688008      48.183817      2480.7478    
   3000000   3000           446.19972     -18283.499      11390.837      37.679264      42.686339      48.183817      2480.7478    
Loop time of 19218.2 on 8 procs for 3000000 steps with 12312 atoms

Performance: 13.487 ns/day, 1.779 hours/ns, 156.102 timesteps/s, 1.922 Matom-step/s
97.4% CPU use with 8 MPI tasks x 1 OpenMP threads

MPI task timing breakdown:
Section |  min time  |  avg time  |  max time  |%varavg| %total
---------------------------------------------------------------
Pair    | 11278      | 11744      | 12209      | 329.3 | 61.11
Bond    | 846.67     | 984.33     | 1132.2     | 384.5 |  5.12
Kspace  | 3609.6     | 3893.4     | 4195.9     | 322.3 | 20.26
Neigh   | 1799       | 1799.3     | 1799.4     |   0.3 |  9.36
Comm    | 540.7      | 605.55     | 659.08     | 211.8 |  3.15
Output  | 0.11445    | 0.27028    | 0.29296    |  11.3 |  0.00
Modify  | 150.5      | 154.69     | 159.5      |  27.6 |  0.80
Other   |            | 37.14      |            |       |  0.19

Nlocal:           1539 ave        1670 max        1352 min
Histogram: 1 0 0 2 1 0 0 1 2 1
Nghost:           8991 ave        9139 max        8837 min
Histogram: 1 0 1 1 1 0 2 1 0 1
Neighs:              0 ave           0 max           0 min
Histogram: 8 0 0 0 0 0 0 0 0 0

Total # of neighbors = 0
Ave neighs/atom = 0
Ave special neighs/atom = 8.920078
Neighbor list builds = 128534
Dangerous builds = 0

# variable kappa equal (v_tot_transf_ek/(time)/(v_area)/2.0)*(v_Lb/2.0)/f_aveTdiff
Total wall time: 8:51:16
