CHARMM-GUI lammps input

               880  atoms
              1320  bonds
              2640  angles
              5280  dihedrals
                 0  impropers
                 0  crossterms

                 1  atom types
                 1  bond types
                 1  angle types
                 2  dihedral types
                 0  improper types

    -24.6700      24.6700 xlo xhi
    -23.5015      23.5015 ylo yhi
    -17.0000      17.0000 zlo zhi

Masses

       1        12.011  # CG2R61

Pair Coeffs

       1 0.07000000000000 3.55005321204562 0.07000000000000 3.55005321204562 # CG2R61

Atoms

           1        1      1   0.000   -24.6700000000   -23.5015000000     0.2770000000 # NM-1-GP001-C1-CG2R61
           2        1      1   0.000   -23.4360000000   -22.7895000000     0.2770000000 # NM-1-GP001-C2-CG2R61
           3        1      1   0.000   -22.2030000000   -23.5015000000     0.2770000000 # NM-1-GP001-C3-CG2R61
           4        1      1   0.000   -20.9690000000   -22.7895000000     0.2770000000 # NM-1-GP001-C4-CG2R61
           5        1      1   0.000   -20.9690000000   -21.3655000000     0.2770000000 # NM-1-GP001-C5-CG2R61
           6        1      1   0.000   -22.2030000000   -20.6535000000     0.2770000000 # NM-1-GP001-C6-CG2R61
           7        1      1   0.000   -23.4360000000   -21.3655000000     0.2770000000 # NM-1-GP001-C7-CG2R61
           8        1      1   0.000   -24.6700000000   -20.6535000000     0.2770000000 # NM-1-GP001-C8-CG2R61
           9        2      1   0.000   -24.6700000000   -19.2285000000     0.2770000000 # NM-2-GP001-C1-CG2R61
          10        2      1   0.000   -23.4360000000   -18.5165000000     0.2770000000 # NM-2-GP001-C2-CG2R61
          11        2      1   0.000   -22.2030000000   -19.2285000000     0.2770000000 # NM-2-GP001-C3-CG2R61
          12        2      1   0.000   -20.9690000000   -18.5165000000     0.2770000000 # NM-2-GP001-C4-CG2R61
          13        2      1   0.000   -20.9690000000   -17.0925000000     0.2770000000 # NM-2-GP001-C5-CG2R61
          14        2      1   0.000   -22.2030000000   -16.3805000000     0.2770000000 # NM-2-GP001-C6-CG2R61
          15        2      1   0.000   -23.4360000000   -17.0925000000     0.2770000000 # NM-2-GP001-C7-CG2R61
          16        2      1   0.000   -24.6700000000   -16.3805000000     0.2770000000 # NM-2-GP001-C8-CG2R61
          17        3      1   0.000   -24.6700000000   -14.9555000000     0.2770000000 # NM-3-GP001-C1-CG2R61
          18        3      1   0.000   -23.4360000000   -14.2435000000     0.2770000000 # NM-3-GP001-C2-CG2R61
          19        3      1   0.000   -22.2030000000   -14.9555000000     0.2770000000 # NM-3-GP001-C3-CG2R61
          20        3      1   0.000   -20.9690000000   -14.2435000000     0.2770000000 # NM-3-GP001-C4-CG2R61
          21        3      1   0.000   -20.9690000000   -12.8195000000     0.2770000000 # NM-3-GP001-C5-CG2R61
          22        3      1   0.000   -22.2030000000   -12.1075000000     0.2770000000 # NM-3-GP001-C6-CG2R61
          23        3      1   0.000   -23.4360000000   -12.8195000000     0.2770000000 # NM-3-GP001-C7-CG2R61
          24        3      1   0.000   -24.6700000000   -12.1075000000     0.2770000000 # NM-3-GP001-C8-CG2R61
          25        4      1   0.000   -24.6700000000   -10.6825000000     0.2770000000 # NM-4-GP001-C1-CG2R61
          26        4      1   0.000   -23.4360000000    -9.9705000000     0.2770000000 # NM-4-GP001-C2-CG2R61
          27        4      1   0.000   -22.2030000000   -10.6825000000     0.2770000000 # NM-4-GP001-C3-CG2R61
          28        4      1   0.000   -20.9690000000    -9.9705000000     0.2770000000 # NM-4-GP001-C4-CG2R61
          29        4      1   0.000   -20.9690000000    -8.5465000000     0.2770000000 # NM-4-GP001-C5-CG2R61
          30        4      1   0.000   -22.2030000000    -7.8345000000     0.2770000000 # NM-4-GP001-C6-CG2R61
          31        4      1   0.000   -23.4360000000    -8.5465000000     0.2770000000 # NM-4-GP001-C7-CG2R61
          32        4      1   0.000   -24.6700000000    -7.8345000000     0.2770000000 # NM-4-GP001-C8-CG2R61
          33        5      1   0.000   -24.6700000000    -6.4095000000     0.2770000000 # NM-5-GP001-C1-CG2R61
          34        5      1   0.000   -23.4360000000    -5.6975000000     0.2770000000 # NM-5-GP001-C2-CG2R61
          35        5      1   0.000   -22.2030000000    -6.4095000000     0.2770000000 # NM-5-GP001-C3-CG2R61
          36        5      1   0.000   -20.9690000000    -5.6975000000     0.2770000000 # NM-5-GP001-C4-CG2R61
          37        5      1   0.000   -20.9690000000    -4.2735000000     0.2770000000 # NM-5-GP001-C5-CG2R61
          38        5      1   0.000   -22.2030000000    -3.5615000000     0.2770000000 # NM-5-GP001-C6-CG2R61
          39        5      1   0.000   -23.4360000000    -4.2735000000     0.2770000000 # NM-5-GP001-C7-CG2R61
          40        5      1   0.000   -24.6700000000    -3.5615000000     0.2770000000 # NM-5-GP001-C8-CG2R61
          41        6      1   0.000   -24.6700000000    -2.1365000000     0.2770000000 # NM-6-GP001-C1-CG2R61
          42        6      1   0.000   -23.4360000000    -1.4245000000     0.2770000000 # NM-6-GP001-C2-CG2R61
          43        6      1   0.000   -22.2030000000    -2.1365000000     0.2770000000 # NM-6-GP001-C3-CG2R61
          44        6      1   0.000   -20.9690000000    -1.4245000000     0.2770000000 # NM-6-GP001-C4-CG2R61
          45        6      1   0.000   -20.9690000000    -0.0005000000     0.2770000000 # NM-6-GP001-C5-CG2R61
          46        6      1   0.000   -22.2030000000     0.7115000000     0.2770000000 # NM-6-GP001-C6-CG2R61
          47        6      1   0.000   -23.4360000000    -0.0005000000     0.2770000000 # NM-6-GP001-C7-CG2R61
          48        6      1   0.000   -24.6700000000     0.7115000000     0.2770000000 # NM-6-GP001-C8-CG2R61
          49        7      1   0.000   -24.6700000000     2.1365000000     0.2770000000 # NM-7-GP001-C1-CG2R61
          50        7      1   0.000   -23.4360000000     2.8485000000     0.2770000000 # NM-7-GP001-C2-CG2R61
          51        7      1   0.000   -22.2030000000     2.1365000000     0.2770000000 # NM-7-GP001-C3-CG2R61
          52        7      1   0.000   -20.9690000000     2.8485000000     0.2770000000 # NM-7-GP001-C4-CG2R61
          53        7      1   0.000   -20.9690000000     4.2725000000     0.2770000000 # NM-7-GP001-C5-CG2R61
          54        7      1   0.000   -22.2030000000     4.9845000000     0.2770000000 # NM-7-GP001-C6-CG2R61
          55        7      1   0.000   -23.4360000000     4.2725000000     0.2770000000 # NM-7-GP001-C7-CG2R61
          56        7      1   0.000   -24.6700000000     4.9845000000     0.2770000000 # NM-7-GP001-C8-CG2R61
          57        8      1   0.000   -24.6700000000     6.4095000000     0.2770000000 # NM-8-GP001-C1-CG2R61
          58        8      1   0.000   -23.4360000000     7.1215000000     0.2770000000 # NM-8-GP001-C2-CG2R61
          59        8      1   0.000   -22.2030000000     6.4095000000     0.2770000000 # NM-8-GP001-C3-CG2R61
          60        8      1   0.000   -20.9690000000     7.1215000000     0.2770000000 # NM-8-GP001-C4-CG2R61
          61        8      1   0.000   -20.9690000000     8.5455000000     0.2770000000 # NM-8-GP001-C5-CG2R61
          62        8      1   0.000   -22.2030000000     9.2575000000     0.2770000000 # NM-8-GP001-C6-CG2R61
          63        8      1   0.000   -23.4360000000     8.5455000000     0.2770000000 # NM-8-GP001-C7-CG2R61
          64        8      1   0.000   -24.6700000000     9.2575000000     0.2770000000 # NM-8-GP001-C8-CG2R61
          65        9      1   0.000   -24.6700000000    10.6825000000     0.2770000000 # NM-9-GP001-C1-CG2R61
          66        9      1   0.000   -23.4360000000    11.3945000000     0.2770000000 # NM-9-GP001-C2-CG2R61
          67        9      1   0.000   -22.2030000000    10.6825000000     0.2770000000 # NM-9-GP001-C3-CG2R61
          68        9      1   0.000   -20.9690000000    11.3945000000     0.2770000000 # NM-9-GP001-C4-CG2R61
          69        9      1   0.000   -20.9690000000    12.8185000000     0.2770000000 # NM-9-GP001-C5-CG2R61
          70        9      1   0.000   -22.2030000000    13.5305000000     0.2770000000 # NM-9-GP001-C6-CG2R61
          71        9      1   0.000   -23.4360000000    12.8185000000     0.2770000000 # NM-9-GP001-C7-CG2R61
          72        9      1   0.000   -24.6700000000    13.5305000000     0.2770000000 # NM-9-GP001-C8-CG2R61
          73       10      1   0.000   -24.6700000000    14.9555000000     0.2770000000 # NM-10-GP001-C1-CG2R61
          74       10      1   0.000   -23.4360000000    15.6675000000     0.2770000000 # NM-10-GP001-C2-CG2R61
          75       10      1   0.000   -22.2030000000    14.9555000000     0.2770000000 # NM-10-GP001-C3-CG2R61
          76       10      1   0.000   -20.9690000000    15.6675000000     0.2770000000 # NM-10-GP001-C4-CG2R61
          77       10      1   0.000   -20.9690000000    17.0915000000     0.2770000000 # NM-10-GP001-C5-CG2R61
          78       10      1   0.000   -22.2030000000    17.8035000000     0.2770000000 # NM-10-GP001-C6-CG2R61
          79       10      1   0.000   -23.4360000000    17.0915000000     0.2770000000 # NM-10-GP001-C7-CG2R61
          80       10      1   0.000   -24.6700000000    17.8035000000     0.2770000000 # NM-10-GP001-C8-CG2R61
          81       11      1   0.000   -24.6700000000    19.2285000000     0.2770000000 # NM-11-GP001-C1-CG2R61
          82       11      1   0.000   -23.4360000000    19.9405000000     0.2770000000 # NM-11-GP001-C2-CG2R61
          83       11      1   0.000   -22.2030000000    19.2285000000     0.2770000000 # NM-11-GP001-C3-CG2R61
          84       11      1   0.000   -20.9690000000    19.9405000000     0.2770000000 # NM-11-GP001-C4-CG2R61
          85       11      1   0.000   -20.9690000000    21.3645000000     0.2770000000 # NM-11-GP001-C5-CG2R61
          86       11      1   0.000   -22.2030000000    22.0765000000     0.2770000000 # NM-11-GP001-C6-CG2R61
          87       11      1   0.000   -23.4360000000    21.3645000000     0.2770000000 # NM-11-GP001-C7-CG2R61
          88       11      1   0.000   -24.6700000000    22.0765000000     0.2770000000 # NM-11-GP001-C8-CG2R61
          89       12      1   0.000   -19.7360000000   -23.5015000000     0.2770000000 # NM-12-GP001-C1-CG2R61
          90       12      1   0.000   -18.5020000000   -22.7895000000     0.2770000000 # NM-12-GP001-C2-CG2R61
          91       12      1   0.000   -17.2690000000   -23.5015000000     0.2770000000 # NM-12-GP001-C3-CG2R61
          92       12      1   0.000   -16.0350000000   -22.7895000000     0.2770000000 # NM-12-GP001-C4-CG2R61
          93       12      1   0.000   -16.0350000000   -21.3655000000     0.2770000000 # NM-12-GP001-C5-CG2R61
          94       12      1   0.000   -17.2690000000   -20.6535000000     0.2770000000 # NM-12-GP001-C6-CG2R61
          95       12      1   0.000   -18.5020000000   -21.3655000000     0.2770000000 # NM-12-GP001-C7-CG2R61
          96       12      1   0.000   -19.7360000000   -20.6535000000     0.2770000000 # NM-12-GP001-C8-CG2R61
          97       13      1   0.000   -19.7360000000   -19.2285000000     0.2770000000 # NM-13-GP001-C1-CG2R61
          98       13      1   0.000   -18.5020000000   -18.5165000000     0.2770000000 # NM-13-GP001-C2-CG2R61
          99       13      1   0.000   -17.2690000000   -19.2285000000     0.2770000000 # NM-13-GP001-C3-CG2R61
         100       13      1   0.000   -16.0350000000   -18.5165000000     0.2770000000 # NM-13-GP001-C4-CG2R61
         101       13      1   0.000   -16.0350000000   -17.0925000000     0.2770000000 # NM-13-GP001-C5-CG2R61
         102       13      1   0.000   -17.2690000000   -16.3805000000     0.2770000000 # NM-13-GP001-C6-CG2R61
         103       13      1   0.000   -18.5020000000   -17.0925000000     0.2770000000 # NM-13-GP001-C7-CG2R61
         104       13      1   0.000   -19.7360000000   -16.3805000000     0.2770000000 # NM-13-GP001-C8-CG2R61
         105       14      1   0.000   -19.7360000000   -14.9555000000     0.2770000000 # NM-14-GP001-C1-CG2R61
         106       14      1   0.000   -18.5020000000   -14.2435000000     0.2770000000 # NM-14-GP001-C2-CG2R61
         107       14      1   0.000   -17.2690000000   -14.9555000000     0.2770000000 # NM-14-GP001-C3-CG2R61
         108       14      1   0.000   -16.0350000000   -14.2435000000     0.2770000000 # NM-14-GP001-C4-CG2R61
         109       14      1   0.000   -16.0350000000   -12.8195000000     0.2770000000 # NM-14-GP001-C5-CG2R61
         110       14      1   0.000   -17.2690000000   -12.1075000000     0.2770000000 # NM-14-GP001-C6-CG2R61
         111       14      1   0.000   -18.5020000000   -12.8195000000     0.2770000000 # NM-14-GP001-C7-CG2R61
         112       14      1   0.000   -19.7360000000   -12.1075000000     0.2770000000 # NM-14-GP001-C8-CG2R61
         113       15      1   0.000   -19.7360000000   -10.6825000000     0.2770000000 # NM-15-GP001-C1-CG2R61
         114       15      1   0.000   -18.5020000000    -9.9705000000     0.2770000000 # NM-15-GP001-C2-CG2R61
         115       15      1   0.000   -17.2690000000   -10.6825000000     0.2770000000 # NM-15-GP001-C3-CG2R61
         116       15      1   0.000   -16.0350000000    -9.9705000000     0.2770000000 # NM-15-GP001-C4-CG2R61
         117       15      1   0.000   -16.0350000000    -8.5465000000     0.2770000000 # NM-15-GP001-C5-CG2R61
         118       15      1   0.000   -17.2690000000    -7.8345000000     0.2770000000 # NM-15-GP001-C6-CG2R61
         119       15      1   0.000   -18.5020000000    -8.5465000000     0.2770000000 # NM-15-GP001-C7-CG2R61
         120       15      1   0.000   -19.7360000000    -7.8345000000     0.2770000000 # NM-15-GP001-C8-CG2R61
         121       16      1   0.000   -19.7360000000    -6.4095000000     0.2770000000 # NM-16-GP001-C1-CG2R61
         122       16      1   0.000   -18.5020000000    -5.6975000000     0.2770000000 # NM-16-GP001-C2-CG2R61
         123       16      1   0.000   -17.2690000000    -6.4095000000     0.2770000000 # NM-16-GP001-C3-CG2R61
         124       16      1   0.000   -16.0350000000    -5.6975000000     0.2770000000 # NM-16-GP001-C4-CG2R61
         125       16      1   0.000   -16.0350000000    -4.2735000000     0.2770000000 # NM-16-GP001-C5-CG2R61
         126       16      1   0.000   -17.2690000000    -3.5615000000     0.2770000000 # NM-16-GP001-C6-CG2R61
         127       16      1   0.000   -18.5020000000    -4.2735000000     0.2770000000 # NM-16-GP001-C7-CG2R61
         128       16      1   0.000   -19.7360000000    -3.5615000000     0.2770000000 # NM-16-GP001-C8-CG2R61
         129       17      1   0.000   -19.7360000000    -2.1365000000     0.2770000000 # NM-17-GP001-C1-CG2R61
         130       17      1   0.000   -18.5020000000    -1.4245000000     0.2770000000 # NM-17-GP001-C2-CG2R61
         131       17      1   0.000   -17.2690000000    -2.1365000000     0.2770000000 # NM-17-GP001-C3-CG2R61
         132       17      1   0.000   -16.0350000000    -1.4245000000     0.2770000000 # NM-17-GP001-C4-CG2R61
         133       17      1   0.000   -16.0350000000    -0.0005000000     0.2770000000 # NM-17-GP001-C5-CG2R61
         134       17      1   0.000   -17.2690000000     0.7115000000     0.2770000000 # NM-17-GP001-C6-CG2R61
         135       17      1   0.000   -18.5020000000    -0.0005000000     0.2770000000 # NM-17-GP001-C7-CG2R61
         136       17      1   0.000   -19.7360000000     0.7115000000     0.2770000000 # NM-17-GP001-C8-CG2R61
         137       18      1   0.000   -19.7360000000     2.1365000000     0.2770000000 # NM-18-GP001-C1-CG2R61
         138       18      1   0.000   -18.5020000000     2.8485000000     0.2770000000 # NM-18-GP001-C2-CG2R61
         139       18      1   0.000   -17.2690000000     2.1365000000     0.2770000000 # NM-18-GP001-C3-CG2R61
         140       18      1   0.000   -16.0350000000     2.8485000000     0.2770000000 # NM-18-GP001-C4-CG2R61
         141       18      1   0.000   -16.0350000000     4.2725000000     0.2770000000 # NM-18-GP001-C5-CG2R61
         142       18      1   0.000   -17.2690000000     4.9845000000     0.2770000000 # NM-18-GP001-C6-CG2R61
         143       18      1   0.000   -18.5020000000     4.2725000000     0.2770000000 # NM-18-GP001-C7-CG2R61
         144       18      1   0.000   -19.7360000000     4.9845000000     0.2770000000 # NM-18-GP001-C8-CG2R61
         145       19      1   0.000   -19.7360000000     6.4095000000     0.2770000000 # NM-19-GP001-C1-CG2R61
         146       19      1   0.000   -18.5020000000     7.1215000000     0.2770000000 # NM-19-GP001-C2-CG2R61
         147       19      1   0.000   -17.2690000000     6.4095000000     0.2770000000 # NM-19-GP001-C3-CG2R61
         148       19      1   0.000   -16.0350000000     7.1215000000     0.2770000000 # NM-19-GP001-C4-CG2R61
         149       19      1   0.000   -16.0350000000     8.5455000000     0.2770000000 # NM-19-GP001-C5-CG2R61
         150       19      1   0.000   -17.2690000000     9.2575000000     0.2770000000 # NM-19-GP001-C6-CG2R61
         151       19      1   0.000   -18.5020000000     8.5455000000     0.2770000000 # NM-19-GP001-C7-CG2R61
         152       19      1   0.000   -19.7360000000     9.2575000000     0.2770000000 # NM-19-GP001-C8-CG2R61
         153       20      1   0.000   -19.7360000000    10.6825000000     0.2770000000 # NM-20-GP001-C1-CG2R61
         154       20      1   0.000   -18.5020000000    11.3945000000     0.2770000000 # NM-20-GP001-C2-CG2R61
         155       20      1   0.000   -17.2690000000    10.6825000000     0.2770000000 # NM-20-GP001-C3-CG2R61
         156       20      1   0.000   -16.0350000000    11.3945000000     0.2770000000 # NM-20-GP001-C4-CG2R61
         157       20      1   0.000   -16.0350000000    12.8185000000     0.2770000000 # NM-20-GP001-C5-CG2R61
         158       20      1   0.000   -17.2690000000    13.5305000000     0.2770000000 # NM-20-GP001-C6-CG2R61
         159       20      1   0.000   -18.5020000000    12.8185000000     0.2770000000 # NM-20-GP001-C7-CG2R61
         160       20      1   0.000   -19.7360000000    13.5305000000     0.2770000000 # NM-20-GP001-C8-CG2R61
         161       21      1   0.000   -19.7360000000    14.9555000000     0.2770000000 # NM-21-GP001-C1-CG2R61
         162       21      1   0.000   -18.5020000000    15.6675000000     0.2770000000 # NM-21-GP001-C2-CG2R61
         163       21      1   0.000   -17.2690000000    14.9555000000     0.2770000000 # NM-21-GP001-C3-CG2R61
         164       21      1   0.000   -16.0350000000    15.6675000000     0.2770000000 # NM-21-GP001-C4-CG2R61
         165       21      1   0.000   -16.0350000000    17.0915000000     0.2770000000 # NM-21-GP001-C5-CG2R61
         166       21      1   0.000   -17.2690000000    17.8035000000     0.2770000000 # NM-21-GP001-C6-CG2R61
         167       21      1   0.000   -18.5020000000    17.0915000000     0.2770000000 # NM-21-GP001-C7-CG2R61
         168       21      1   0.000   -19.7360000000    17.8035000000     0.2770000000 # NM-21-GP001-C8-CG2R61
         169       22      1   0.000   -19.7360000000    19.2285000000     0.2770000000 # NM-22-GP001-C1-CG2R61
         170       22      1   0.000   -18.5020000000    19.9405000000     0.2770000000 # NM-22-GP001-C2-CG2R61
         171       22      1   0.000   -17.2690000000    19.2285000000     0.2770000000 # NM-22-GP001-C3-CG2R61
         172       22      1   0.000   -16.0350000000    19.9405000000     0.2770000000 # NM-22-GP001-C4-CG2R61
         173       22      1   0.000   -16.0350000000    21.3645000000     0.2770000000 # NM-22-GP001-C5-CG2R61
         174       22      1   0.000   -17.2690000000    22.0765000000     0.2770000000 # NM-22-GP001-C6-CG2R61
         175       22      1   0.000   -18.5020000000    21.3645000000     0.2770000000 # NM-22-GP001-C7-CG2R61
         176       22      1   0.000   -19.7360000000    22.0765000000     0.2770000000 # NM-22-GP001-C8-CG2R61
         177       23      1   0.000   -14.8020000000   -23.5015000000     0.2770000000 # NM-23-GP001-C1-CG2R61
         178       23      1   0.000   -13.5680000000   -22.7895000000     0.2770000000 # NM-23-GP001-C2-CG2R61
         179       23      1   0.000   -12.3350000000   -23.5015000000     0.2770000000 # NM-23-GP001-C3-CG2R61
         180       23      1   0.000   -11.1010000000   -22.7895000000     0.2770000000 # NM-23-GP001-C4-CG2R61
         181       23      1   0.000   -11.1010000000   -21.3655000000     0.2770000000 # NM-23-GP001-C5-CG2R61
         182       23      1   0.000   -12.3350000000   -20.6535000000     0.2770000000 # NM-23-GP001-C6-CG2R61
         183       23      1   0.000   -13.5680000000   -21.3655000000     0.2770000000 # NM-23-GP001-C7-CG2R61
         184       23      1   0.000   -14.8020000000   -20.6535000000     0.2770000000 # NM-23-GP001-C8-CG2R61
         185       24      1   0.000   -14.8020000000   -19.2285000000     0.2770000000 # NM-24-GP001-C1-CG2R61
         186       24      1   0.000   -13.5680000000   -18.5165000000     0.2770000000 # NM-24-GP001-C2-CG2R61
         187       24      1   0.000   -12.3350000000   -19.2285000000     0.2770000000 # NM-24-GP001-C3-CG2R61
         188       24      1   0.000   -11.1010000000   -18.5165000000     0.2770000000 # NM-24-GP001-C4-CG2R61
         189       24      1   0.000   -11.1010000000   -17.0925000000     0.2770000000 # NM-24-GP001-C5-CG2R61
         190       24      1   0.000   -12.3350000000   -16.3805000000     0.2770000000 # NM-24-GP001-C6-CG2R61
         191       24      1   0.000   -13.5680000000   -17.0925000000     0.2770000000 # NM-24-GP001-C7-CG2R61
         192       24      1   0.000   -14.8020000000   -16.3805000000     0.2770000000 # NM-24-GP001-C8-CG2R61
         193       25      1   0.000   -14.8020000000   -14.9555000000     0.2770000000 # NM-25-GP001-C1-CG2R61
         194       25      1   0.000   -13.5680000000   -14.2435000000     0.2770000000 # NM-25-GP001-C2-CG2R61
         195       25      1   0.000   -12.3350000000   -14.9555000000     0.2770000000 # NM-25-GP001-C3-CG2R61
         196       25      1   0.000   -11.1010000000   -14.2435000000     0.2770000000 # NM-25-GP001-C4-CG2R61
         197       25      1   0.000   -11.1010000000   -12.8195000000     0.2770000000 # NM-25-GP001-C5-CG2R61
         198       25      1   0.000   -12.3350000000   -12.1075000000     0.2770000000 # NM-25-GP001-C6-CG2R61
         199       25      1   0.000   -13.5680000000   -12.8195000000     0.2770000000 # NM-25-GP001-C7-CG2R61
         200       25      1   0.000   -14.8020000000   -12.1075000000     0.2770000000 # NM-25-GP001-C8-CG2R61
         201       26      1   0.000   -14.8020000000   -10.6825000000     0.2770000000 # NM-26-GP001-C1-CG2R61
         202       26      1   0.000   -13.5680000000    -9.9705000000     0.2770000000 # NM-26-GP001-C2-CG2R61
         203       26      1   0.000   -12.3350000000   -10.6825000000     0.2770000000 # NM-26-GP001-C3-CG2R61
         204       26      1   0.000   -11.1010000000    -9.9705000000     0.2770000000 # NM-26-GP001-C4-CG2R61
         205       26      1   0.000   -11.1010000000    -8.5465000000     0.2770000000 # NM-26-GP001-C5-CG2R61
         206       26      1   0.000   -12.3350000000    -7.8345000000     0.2770000000 # NM-26-GP001-C6-CG2R61
         207       26      1   0.000   -13.5680000000    -8.5465000000     0.2770000000 # NM-26-GP001-C7-CG2R61
         208       26      1   0.000   -14.8020000000    -7.8345000000     0.2770000000 # NM-26-GP001-C8-CG2R61
         209       27      1   0.000   -14.8020000000    -6.4095000000     0.2770000000 # NM-27-GP001-C1-CG2R61
         210       27      1   0.000   -13.5680000000    -5.6975000000     0.2770000000 # NM-27-GP001-C2-CG2R61
         211       27      1   0.000   -12.3350000000    -6.4095000000     0.2770000000 # NM-27-GP001-C3-CG2R61
         212       27      1   0.000   -11.1010000000    -5.6975000000     0.2770000000 # NM-27-GP001-C4-CG2R61
         213       27      1   0.000   -11.1010000000    -4.2735000000     0.2770000000 # NM-27-GP001-C5-CG2R61
         214       27      1   0.000   -12.3350000000    -3.5615000000     0.2770000000 # NM-27-GP001-C6-CG2R61
         215       27      1   0.000   -13.5680000000    -4.2735000000     0.2770000000 # NM-27-GP001-C7-CG2R61
         216       27      1   0.000   -14.8020000000    -3.5615000000     0.2770000000 # NM-27-GP001-C8-CG2R61
         217       28      1   0.000   -14.8020000000    -2.1365000000     0.2770000000 # NM-28-GP001-C1-CG2R61
         218       28      1   0.000   -13.5680000000    -1.4245000000     0.2770000000 # NM-28-GP001-C2-CG2R61
         219       28      1   0.000   -12.3350000000    -2.1365000000     0.2770000000 # NM-28-GP001-C3-CG2R61
         220       28      1   0.000   -11.1010000000    -1.4245000000     0.2770000000 # NM-28-GP001-C4-CG2R61
         221       28      1   0.000   -11.1010000000    -0.0005000000     0.2770000000 # NM-28-GP001-C5-CG2R61
         222       28      1   0.000   -12.3350000000     0.7115000000     0.2770000000 # NM-28-GP001-C6-CG2R61
         223       28      1   0.000   -13.5680000000    -0.0005000000     0.2770000000 # NM-28-GP001-C7-CG2R61
         224       28      1   0.000   -14.8020000000     0.7115000000     0.2770000000 # NM-28-GP001-C8-CG2R61
         225       29      1   0.000   -14.8020000000     2.1365000000     0.2770000000 # NM-29-GP001-C1-CG2R61
         226       29      1   0.000   -13.5680000000     2.8485000000     0.2770000000 # NM-29-GP001-C2-CG2R61
         227       29      1   0.000   -12.3350000000     2.1365000000     0.2770000000 # NM-29-GP001-C3-CG2R61
         228       29      1   0.000   -11.1010000000     2.8485000000     0.2770000000 # NM-29-GP001-C4-CG2R61
         229       29      1   0.000   -11.1010000000     4.2725000000     0.2770000000 # NM-29-GP001-C5-CG2R61
         230       29      1   0.000   -12.3350000000     4.9845000000     0.2770000000 # NM-29-GP001-C6-CG2R61
         231       29      1   0.000   -13.5680000000     4.2725000000     0.2770000000 # NM-29-GP001-C7-CG2R61
         232       29      1   0.000   -14.8020000000     4.9845000000     0.2770000000 # NM-29-GP001-C8-CG2R61
         233       30      1   0.000   -14.8020000000     6.4095000000     0.2770000000 # NM-30-GP001-C1-CG2R61
         234       30      1   0.000   -13.5680000000     7.1215000000     0.2770000000 # NM-30-GP001-C2-CG2R61
         235       30      1   0.000   -12.3350000000     6.4095000000     0.2770000000 # NM-30-GP001-C3-CG2R61
         236       30      1   0.000   -11.1010000000     7.1215000000     0.2770000000 # NM-30-GP001-C4-CG2R61
         237       30      1   0.000   -11.1010000000     8.5455000000     0.2770000000 # NM-30-GP001-C5-CG2R61
         238       30      1   0.000   -12.3350000000     9.2575000000     0.2770000000 # NM-30-GP001-C6-CG2R61
         239       30      1   0.000   -13.5680000000     8.5455000000     0.2770000000 # NM-30-GP001-C7-CG2R61
         240       30      1   0.000   -14.8020000000     9.2575000000     0.2770000000 # NM-30-GP001-C8-CG2R61
         241       31      1   0.000   -14.8020000000    10.6825000000     0.2770000000 # NM-31-GP001-C1-CG2R61
         242       31      1   0.000   -13.5680000000    11.3945000000     0.2770000000 # NM-31-GP001-C2-CG2R61
         243       31      1   0.000   -12.3350000000    10.6825000000     0.2770000000 # NM-31-GP001-C3-CG2R61
         244       31      1   0.000   -11.1010000000    11.3945000000     0.2770000000 # NM-31-GP001-C4-CG2R61
         245       31      1   0.000   -11.1010000000    12.8185000000     0.2770000000 # NM-31-GP001-C5-CG2R61
         246       31      1   0.000   -12.3350000000    13.5305000000     0.2770000000 # NM-31-GP001-C6-CG2R61
         247       31      1   0.000   -13.5680000000    12.8185000000     0.2770000000 # NM-31-GP001-C7-CG2R61
         248       31      1   0.000   -14.8020000000    13.5305000000     0.2770000000 # NM-31-GP001-C8-CG2R61
         249       32      1   0.000   -14.8020000000    14.9555000000     0.2770000000 # NM-32-GP001-C1-CG2R61
         250       32      1   0.000   -13.5680000000    15.6675000000     0.2770000000 # NM-32-GP001-C2-CG2R61
         251       32      1   0.000   -12.3350000000    14.9555000000     0.2770000000 # NM-32-GP001-C3-CG2R61
         252       32      1   0.000   -11.1010000000    15.6675000000     0.2770000000 # NM-32-GP001-C4-CG2R61
         253       32      1   0.000   -11.1010000000    17.0915000000     0.2770000000 # NM-32-GP001-C5-CG2R61
         254       32      1   0.000   -12.3350000000    17.8035000000     0.2770000000 # NM-32-GP001-C6-CG2R61
         255       32      1   0.000   -13.5680000000    17.0915000000     0.2770000000 # NM-32-GP001-C7-CG2R61
         256       32      1   0.000   -14.8020000000    17.8035000000     0.2770000000 # NM-32-GP001-C8-CG2R61
         257       33      1   0.000   -14.8020000000    19.2285000000     0.2770000000 # NM-33-GP001-C1-CG2R61
         258       33      1   0.000   -13.5680000000    19.9405000000     0.2770000000 # NM-33-GP001-C2-CG2R61
         259       33      1   0.000   -12.3350000000    19.2285000000     0.2770000000 # NM-33-GP001-C3-CG2R61
         260       33      1   0.000   -11.1010000000    19.9405000000     0.2770000000 # NM-33-GP001-C4-CG2R61
         261       33      1   0.000   -11.1010000000    21.3645000000     0.2770000000 # NM-33-GP001-C5-CG2R61
         262       33      1   0.000   -12.3350000000    22.0765000000     0.2770000000 # NM-33-GP001-C6-CG2R61
         263       33      1   0.000   -13.5680000000    21.3645000000     0.2770000000 # NM-33-GP001-C7-CG2R61